(written by ASE)

888 atoms
9 atom types

0.0      21.553999999999998  xlo xhi
0.0      21.553999999999998  ylo yhi
0.0                  21.544  zlo zhi

Atoms # atomic

     1   2     -34.551900000000003                -12.6778      18.985499999999998
     2   4     -34.929200000000002                -13.5527      19.349799999999998
     3   4     -35.108499999999999     -12.372400000000001                  18.067
     4   7     -33.200800000000001                 -13.038                 18.4131
     5   2     -32.247100000000003     -12.272600000000001      18.995999999999999
     6   7     -31.060099999999998     -12.310600000000001                 18.7577
     7   7     -32.744300000000003                -11.4864                 20.0501
     8   2     -34.234900000000003                -11.5307      19.907299999999999
     9   4     -34.607399999999998     -10.568300000000001      19.559799999999999
    10   4     -34.673200000000001                -11.7287      20.908200000000001
    11   2                -26.8874     -6.8862800000000002      4.5699800000000002
    12   4     -25.888400000000001     -6.8411799999999996      4.1067200000000001
    13   4                -27.3657                 15.6676      4.2928300000000004
    14   7     -26.725000000000001                -7.20078      5.9700800000000003
    15   2     -27.771899999999999     -8.0099099999999996      6.3141100000000003
    16   7     -27.912299999999998     -8.3618400000000008      7.4452499999999997
    17   7                 -28.439     -8.4665800000000004      5.2575700000000003
    18   2     -27.633500000000002     -8.0708099999999998      4.0388799999999998
    19   4     -28.305299999999999     -7.9054099999999998      3.1454200000000001
    20   4     -27.041799999999999     -8.9669500000000006      3.7768999999999999
    21   2     -27.883600000000001     -3.1202999999999999                 4.43832
    22   4     -27.209299999999999                -3.38395      3.6156999999999999
    23   4     -28.404299999999999     -4.0250399999999997      4.7102399999999998
    24   7     -28.897400000000001     -2.0994000000000002      3.9350700000000001
    25   2     -28.992100000000001     -1.0735699999999999      4.8337399999999997
    26   7     -29.787299999999998   -0.085458999999999993      4.8309699999999998
    27   7                -28.1295                -1.25169                 5.86449
    28   2     -27.257100000000001                -2.33006                  5.5907
    29   4                -27.0489                -2.97221      6.4299900000000001
    30   4     -26.290600000000001                -1.91998      5.2413299999999996
    31   2     -15.616899999999999                 3.99288     -1.4323900000000001
    32   4     -16.531700000000001      4.2202799999999998    -0.85742700000000005
    33   4                -14.8734                 4.82836                -1.44184
    34   7     -16.097999999999999      3.9648500000000002     -2.8439399999999999
    35   2                -15.3474      3.0441600000000002     -3.5396200000000002
    36   7                -15.3865      2.8958900000000001     -4.7367499999999998
    37   7                -14.6677      2.1840700000000002                -2.74044
    38   2                -15.1356      2.5491700000000002                -1.31734
    39   4                 -14.314      2.4602499999999998    -0.57313899999999995
    40   4     -15.901300000000001      1.8197700000000001     -1.0816399999999999
    41   2                -23.6435     -6.7034000000000002                 17.3124
    42   4     -23.520600000000002     -5.9520200000000001      16.582100000000001
    43   4     -23.350100000000001     -7.6597499999999998      16.837900000000001
    44   7     -24.925599999999999     -6.9196600000000004      17.795400000000001
    45   2     -24.840299999999999     -7.1442300000000003                 19.1708
    46   7     -25.766400000000001     -7.4906199999999998      19.812000000000001
    47   7     -23.565799999999999     -7.0043100000000003                 19.6419
    48   2     -22.713000000000001                -6.44339      18.485399999999998
    49   4     -21.733599999999999     -6.9294000000000002      18.588200000000001
    50   4     -22.517499999999998     -5.3781499999999998                  18.625
    51   2                -16.2348      11.331300000000001      12.871600000000001
    52   4                -15.7629                 12.0749                 12.1472
    53   4     -15.686500000000001                 11.4339      13.838800000000001
    54   7                -15.9655                -11.5335      12.375999999999999
    55   2     -17.083400000000001     -11.850300000000001                 11.5951
    56   7                -17.0273                -12.8329      10.852399999999999
    57   7     -18.133400000000002                 10.5093      11.773300000000001
    58   2     -17.751000000000001                 11.5054                 12.7719
    59   4     -18.369599999999998      11.385999999999999                 13.5954
    60   4     -18.061900000000001                 12.5123      12.338699999999999
    61   2     -17.584299999999999     -2.9025799999999999                 17.9724
    62   4     -17.843299999999999     -2.8524600000000002      16.913499999999999
    63   4     -16.474699999999999     -2.9561799999999998                 18.1267
    64   7     -18.079999999999998     -4.1743699999999997      18.547499999999999
    65   2     -19.265899999999998                -3.89452                 19.1129
    66   7     -20.101600000000001     -4.6943900000000003      19.475999999999999
    67   7                -19.4923                -2.58473                 19.2441
    68   2     -18.259699999999999     -1.9419999999999999      18.854399999999998
    69   4     -17.692900000000002     -1.6837500000000001      19.694500000000001
    70   4     -18.516500000000001     -1.0373600000000001      18.309100000000001
    71   2                -29.4574      6.4194699999999996     -1.4375599999999999
    72   4     -29.172000000000001      5.7407199999999996               -0.573689
    73   4                -30.2424                 7.10745                -1.16028
    74   7     -29.826899999999998      5.5934699999999999     -2.5914199999999998
    75   2     -29.366299999999999     -15.401400000000001     -3.7505899999999999
    76   7                 -29.782     -15.738899999999999     -4.8212900000000003
    77   7                -28.4605      7.1512700000000002     -3.4997799999999999
    78   2     -28.199400000000001      7.1729099999999999     -2.0600499999999999
    79   4     -28.177299999999999      8.2349399999999999     -1.6812499999999999
    80   4                -27.2423      6.6604400000000004     -1.7821800000000001
    81   2                -31.2349     -13.033099999999999      9.4666800000000002
    82   4     -31.030799999999999                 -13.263      8.4331899999999997
    83   4     -32.194000000000003                -13.3916      9.8876399999999993
    84   7     -31.465399999999999                -11.5631      9.5059900000000006
    85   2     -30.599900000000002     -11.081099999999999      10.519500000000001
    86   7                -30.5138     -9.8825400000000005                 10.7864
    87   7     -29.837299999999999                -12.0214      11.101599999999999
    88   2     -30.078700000000001     -13.307700000000001                 10.4756
    89   4                -30.2425     -14.009600000000001                 11.2982
    90   4     -29.152100000000001                -13.5215                 10.0494
    91   2     -17.639500000000002     -8.5104399999999991      23.290800000000001
    92   4     -17.836600000000001     -9.4796200000000006                 22.7744
    93   4     -17.532800000000002     -8.6514000000000006                 24.3721
    94   7     -18.785299999999999                -7.67502      23.235600000000002
    95   2     -18.586200000000002     -6.4674399999999999                 22.5609
    96   7                -19.3901     -5.5899200000000002      22.394600000000001
    97   7                -17.2454     -6.4144800000000002                 22.1736
    98   2     -16.604399999999998     -7.6635200000000001      22.567900000000002
    99   4     -15.742699999999999                -7.37723                 23.1709
   100   4     -16.162600000000001     -8.1696200000000001      21.685099999999998
   101   2     -18.724900000000002     -4.7689000000000004      8.3571500000000007
   102   4                -18.1828     -5.2906500000000003      9.1999300000000002
   103   4                -18.4833     -5.2619300000000004      7.4213199999999997
   104   7                 -18.256                -3.42916      8.2239000000000004
   105   2     -19.078299999999999                -2.56054      8.8477599999999992
   106   7     -18.861699999999999     -1.3693599999999999      8.8294300000000003
   107   7     -20.199100000000001     -3.1945600000000001      9.2623499999999996
   108   2     -20.239799999999999     -4.5407099999999998      8.7984100000000005
   109   4     -20.789300000000001     -4.7335099999999999                 7.89194
   110   4     -20.533799999999999     -5.1784400000000002      9.6097199999999994
   111   2     -24.135999999999999      7.4613100000000001     -6.4126300000000001
   112   4     -24.076699999999999      7.0855199999999998      14.081200000000001
   113   4     -24.347100000000001      8.5571400000000004     -6.5428499999999996
   114   7                -22.8858      7.2511200000000002     -5.6738600000000003
   115   2     -23.093299999999999                 6.37981     -4.6687900000000004
   116   7     -22.218900000000001      5.8294300000000003     -4.0341199999999997
   117   7     -24.372599999999998      5.8996000000000004     -4.5945999999999998
   118   2     -25.245000000000001      6.7661300000000004     -5.5721800000000004
   119   4     -25.757200000000001      7.4872100000000001     -4.9389500000000002
   120   4     -25.842600000000001      6.1672399999999996                 15.2971
   121   2     -37.901400000000002     -13.448499999999999      20.487100000000002
   122   4     -38.329500000000003                -14.3825                 20.8736
   123   4     -37.469499999999996                -13.5815      19.524000000000001
   124   7     -36.882100000000001                 -12.808      21.366299999999999
   125   2     -37.269399999999997     -11.520799999999999                 21.5778
   126   7     -36.460999999999999     -10.751899999999999      22.069400000000002
   127   7     -38.467100000000002                -11.2135      21.104399999999998
   128   2     -39.066299999999998                -12.3628                 20.5016
   129   4     -39.302100000000003                -12.2096      19.482900000000001
   130   4     -39.861199999999997     -12.720700000000001      21.197299999999998
   131   2                -17.1279     -7.7313000000000001      18.944600000000001
   132   4     -17.213000000000001     -7.6518600000000001      20.025700000000001
   133   4     -17.680099999999999     -6.8852399999999996      18.530000000000001
   134   7     -17.549199999999999                -8.97621      18.432500000000001
   135   2     -16.443999999999999     -9.8000000000000007      18.261600000000001
   136   7     -16.554300000000001                -10.9603      17.917300000000001
   137   7                -15.2881     -9.1982999999999997      18.558700000000002
   138   2                -15.5961     -7.7633999999999999                 18.5989
   139   4     -15.391999999999999     -7.3900699999999997                 17.6204
   140   4                -14.9222     -7.3299300000000001      19.290900000000001
   141   2     -9.2989200000000007     -3.7726600000000001      5.9838899999999997
   142   4     -9.1442700000000006                -3.50562      4.9112499999999999
   143   4     -31.752600000000001     -3.1823399999999999      6.3620400000000004
   144   7     -29.773399999999999                -3.55227      6.8519899999999998
   145   2                -29.3827     -4.5999100000000004      7.5049599999999996
   146   7     -28.615400000000001     -4.6434800000000003      8.4694199999999995
   147   7     -8.5022099999999998     -5.6971100000000003      7.0086000000000004
   148   2     -9.5388699999999993     -5.2329299999999996      6.0172400000000001
   149   4                -10.5519     -5.6019199999999998      6.2637799999999997
   150   4     -9.2300000000000004                -5.81806      5.1063999999999998
   151   2                -26.1235                 -10.206                 11.5693
   152   4                -25.6251     -9.4054900000000004      12.197900000000001
   153   4                -27.1326     -9.9535199999999993      11.412000000000001
   154   7     -25.969899999999999                -11.4894      12.318300000000001
   155   2     -25.566500000000001     -12.470599999999999      11.472899999999999
   156   7                -25.4923                -13.6538      11.712999999999999
   157   7     -25.155799999999999                -11.9689                 10.2783
   158   2     -25.265899999999998     -10.471500000000001                 10.3291
   159   4     -25.721599999999999                  11.445      9.4090199999999999
   160   4                -24.2362                 11.4536      10.569000000000001
   161   2     -36.772300000000001     -4.1008899999999997      21.336400000000001
   162   4     -36.845100000000002     -5.0086700000000004                 20.7104
   163   4     -37.065800000000003     -4.3191300000000004                 22.3416
   164   7                -37.5869     -3.0341499999999999      20.780899999999999
   165   2     -36.927500000000002     -1.8445800000000001      21.031199999999998
   166   7                -15.8491    -0.75814899999999996      20.886500000000002
   167   7     -35.622999999999998     -2.0642900000000002      21.421800000000001
   168   2                -35.3855     -3.5118200000000002      21.247800000000002
   169   4     -34.648099999999999     -3.7101700000000002                 22.0563
   170   4     -34.880000000000003     -3.6569199999999999      20.283200000000001
   171   2     -11.984299999999999     -4.6136799999999996      15.545999999999999
   172   4     -11.093500000000001     -5.1393399999999998                 15.9399
   173   4     -11.725099999999999     -4.2205300000000001                 14.5304
   174   7                -12.2563     -3.5647500000000001                 16.4847
   175   2                -13.4414     -3.7578399999999998                 17.1143
   176   7     -13.866899999999999     -3.0377000000000001      18.015999999999998
   177   7                -14.0852     -4.8417700000000004      16.672799999999999
   178   2     -13.241899999999999     -5.4802200000000001      15.674799999999999
   179   4                -13.9267     -5.6007199999999999                 14.8384
   180   4                -12.9655     -6.4591799999999999                 15.9962
   181   2     -21.612100000000002     -11.702400000000001      4.1943099999999998
   182   4     -22.487500000000001                 10.4427      3.9073600000000002
   183   4     -21.636099999999999     -11.710000000000001      5.2688300000000003
   184   7     -20.389399999999998      10.499700000000001      3.7740800000000001
   185   2     -19.554500000000001                -12.0205      3.4186200000000002
   186   7     -18.346900000000002                -11.8598      3.1977899999999999
   187   7     -20.158000000000001                 -13.212      3.2403599999999999
   188   2                -21.5671     -13.009399999999999      3.3820199999999998
   189   4     -22.019200000000001                -13.7736      3.9245199999999998
   190   4     -22.060300000000002                -12.9826      23.949200000000001
   191   2     -23.774699999999999     -1.5908199999999999                 18.8371
   192   4     -22.871400000000001     -2.0386500000000001      19.114699999999999
   193   4                -23.7746    -0.61778900000000003                 19.2057
   194   7     -24.697500000000002                -2.38422      19.556000000000001
   195   2     -25.196000000000002     -3.3595000000000002      18.787400000000002
   196   7     -25.951799999999999     -4.2418399999999998      19.078600000000002
   197   7     -24.797899999999998                -3.10961      17.492999999999999
   198   2     -24.104199999999999     -1.7788600000000001      17.328399999999998
   199   4     -24.724900000000002    -0.98288200000000003      16.889600000000002
   200   4     -23.160799999999998     -1.9091800000000001      16.790700000000001
   201   2                -23.2285     -2.9117600000000001                 22.4206
   202   4                -23.1175     -2.3595600000000001      23.373899999999999
   203   4                -23.1157     -2.3162799999999999                 21.5075
   204   7                -24.5442                -3.47492      22.361000000000001
   205   2     -24.491900000000001     -4.8080699999999998                  22.459
   206   7                -25.4528     -5.5544000000000002      22.651599999999998
   207   7                -23.2684     -5.3216599999999996     0.83833000000000002
   208   2                -22.2927     -4.2107999999999999     0.80970900000000001
   209   4                -21.7927     -4.2845500000000003               -0.120086
   210   4     -21.688199999999998     -4.3155200000000002                 1.67866
   211   2                -10.3741     -8.2407900000000005      19.709099999999999
   212   4                -10.3774     -9.2293900000000004                 19.2471
   213   4     -9.8218099999999993     -8.3154000000000003      20.661300000000001
   214   7                -11.7826     -7.8754900000000001      19.826000000000001
   215   2     -11.882999999999999                -6.51959                 19.4359
   216   7                 -12.903     -5.9074799999999996      19.640499999999999
   217   7     -10.729200000000001     -6.0714499999999996     -2.5861100000000001
   218   2     -9.8519199999999998     -7.2405400000000002     -2.8163299999999998
   219   4                -30.3475     -6.8804600000000002     -2.6167699999999998
   220   4     -9.9344699999999992     -7.5261300000000002                -3.88083
   221   2     -21.705400000000001                 12.3146                 13.7592
   222   4     -21.155100000000001                 12.8447                 13.0633
   223   4                -21.8216                  12.974                 14.6691
   224   7                -20.8459      11.190799999999999      14.119899999999999
   225   2     -21.449100000000001                 10.0182                 13.8466
   226   7     -20.958100000000002      8.9860100000000003                 14.0998
   227   7                -22.6279      10.302899999999999      13.188000000000001
   228   2                -23.0444      11.672700000000001      13.345800000000001
   229   4                -23.8582      11.624499999999999                 14.1172
   230   4     -23.380700000000001                 12.0107      12.369899999999999
   231   2     -37.879100000000001      8.0121300000000009                 15.4458
   232   4     -38.118499999999997      9.0088200000000001                 15.7537
   233   4     -37.564300000000003      7.4164599999999998      16.330100000000002
   234   7     -36.763399999999997      8.1806400000000004                 14.5871
   235   2     -36.760399999999997      7.2678599999999998      13.638299999999999
   236   7     -14.233599999999999      7.0486599999999999      12.960900000000001
   237   7     -37.929499999999997      6.5716599999999996                 13.7143
   238   2     -38.877200000000002      7.2500400000000003                 14.6309
   239   4     -39.458199999999998      6.4500299999999999                 15.1473
   240   4     -39.528100000000002      7.9554099999999996      14.125400000000001
   241   2     -33.073099999999997     -9.2905599999999993      6.5176699999999999
   242   4     -33.348999999999997     -8.3554099999999991      6.0023400000000002
   243   4     -33.651800000000001                -10.0793      5.9769699999999997
   244   7     -33.570599999999999     -9.2982600000000009      7.8229899999999999
   245   2     -32.665500000000002     -8.6723300000000005      8.6319099999999995
   246   7                 -32.744     -8.2933400000000006      9.7617899999999995
   247   7     -31.448699999999999     -8.6009100000000007      7.9607900000000003
   248   2     -31.496700000000001     -9.3346699999999991      6.7709799999999998
   249   4     -31.150500000000001                -10.3385                 7.03315
   250   4                 -30.956     -8.8485600000000009      5.9409099999999997
   251   2     -25.104399999999998     -5.5521000000000003      9.0177399999999999
   252   4     -26.241099999999999     -5.3064400000000003      8.8668899999999997
   253   4                  -24.68     -5.7039200000000001      8.0359300000000005
   254   7     -24.903300000000002     -6.7382200000000001      9.9138000000000002
   255   2     -24.297699999999999                -6.34544                 11.0618
   256   7                -23.9984                -7.02128      11.991199999999999
   257   7     -24.085699999999999     -5.0349199999999996                  11.061
   258   2     -24.260000000000002     -4.5104100000000003      9.7244299999999999
   259   4     -23.229600000000001                -4.45078      9.2746399999999998
   260   4     -24.507300000000001     -3.5315799999999999      9.8100699999999996
   261   2                -25.1188      10.314399999999999      19.671199999999999
   262   4     -26.206199999999999      10.248699999999999      19.422799999999999
   263   4     -24.981400000000001      10.888199999999999      20.595300000000002
   264   7     -24.413399999999999                 11.1447      18.741700000000002
   265   2     -23.730399999999999                 10.4421      17.869599999999998
   266   7     -23.225200000000001                 10.8535      16.875399999999999
   267   7     -23.736499999999999      9.1313200000000005      18.287299999999998
   268   2                -24.3264      9.0108099999999993      19.590199999999999
   269   4     -23.522300000000001      9.0389599999999994      20.314299999999999
   270   4     -24.878900000000002      8.0832999999999995      19.624500000000001
   271   2     -30.259499999999999     -7.8213299999999997      12.628399999999999
   272   4     -29.339700000000001     -7.6329099999999999                 12.0588
   273   4     -31.078099999999999     -7.9304899999999998      11.966900000000001
   274   7     -30.562000000000001     -6.5792000000000002      13.359500000000001
   275   2     -30.276399999999999     -6.7867899999999999                 14.7127
   276   7     -30.232299999999999     -5.8791500000000001                 15.5663
   277   7     -29.972300000000001     -8.0700599999999998                 15.0015
   278   2                -30.1814     -8.8596000000000004                 13.8103
   279   4                -31.1296     -9.3262900000000002                 13.8986
   280   4     -29.369199999999999     -9.5111500000000007                 13.6716
   281   2     -35.813099999999999      9.1438500000000005      9.7301099999999998
   282   4     -35.654000000000003      9.6634200000000003                  10.718
   283   4     -36.323399999999999      8.2640100000000007      9.8869600000000002
   284   7     -34.604300000000002                -12.7584      9.0673399999999997
   285   2     -34.671799999999998                -12.3484      7.7544399999999998
   286   7     -33.703800000000001     -12.602600000000001      7.0208000000000004
   287   7     -35.695999999999998     -11.597799999999999                 7.56928
   288   2     -36.272300000000001      10.224299999999999      8.8325099999999992
   289   4     -37.326300000000003      10.211499999999999      8.7134400000000003
   290   4                -35.8964                 11.2325      9.1018699999999999
   291   2                -27.1936                 6.21685      4.9319600000000001
   292   4     -27.308900000000001      6.4193499999999997      6.0456099999999999
   293   4     -27.236599999999999      7.1393599999999999      4.3042800000000003
   294   7     -28.198699999999999      5.3360300000000001      4.3982999999999999
   295   2     -27.607099999999999      4.3034299999999996                 3.77407
   296   7     -28.252199999999998                 3.51491                 3.14595
   297   7     -26.279399999999999      4.3415699999999999      3.8633199999999999
   298   2     -25.892800000000001      5.4011699999999996      4.7428299999999997
   299   4                -25.1843      5.9969999999999999                 4.30131
   300   4     -25.496099999999998      4.9679799999999998      5.6105700000000001
   301   2     -26.499500000000001      9.8733699999999995      5.1466799999999999
   302   4     -25.959599999999998      10.867599999999999      5.1339300000000003
   303   4     -26.587399999999999      9.5980699999999999                 4.04237
   304   7     -27.803699999999999      9.9728399999999997      5.7054900000000002
   305   2     -27.897400000000001      9.2278500000000001      6.8992199999999997
   306   7     -28.895199999999999                 9.26999      7.6187100000000001
   307   7     -26.697099999999999      8.6596899999999994      7.1798900000000003
   308   2     -25.732199999999999      8.9198699999999995      6.0743400000000003
   309   4     -25.533899999999999      8.0028000000000006      5.5307399999999998
   310   4     -24.799099999999999      9.2391199999999998      6.5871300000000002
   311   2     -21.461200000000002                -11.3207      9.3682300000000005
   312   4     -22.102900000000002                -11.5084      8.4947300000000006
   313   4     -21.677700000000002     -11.896800000000001                 10.3453
   314   7     -21.700600000000001     -10.010199999999999      9.8067799999999998
   315   2     -20.640799999999999     -9.1363900000000005      9.4463500000000007
   316   7     -20.463100000000001     -7.9288299999999996      9.6398200000000003
   317   7     -19.678799999999999     -9.8951600000000006      8.8038500000000006
   318   2     -19.966000000000001     -11.278700000000001      9.0209899999999994
   319   4     -19.374300000000002     -11.626300000000001      9.9028299999999998
   320   4     -19.642299999999999     -11.874499999999999      8.1203099999999999
   321   2     -19.241299999999999      4.1526300000000003     -5.3512000000000004
   322   4     -19.923500000000001      4.5473499999999998     -6.1474700000000002
   323   4                -18.2834      4.6289800000000003     -5.3351499999999996
   324   7     -40.285400000000003      2.8106599999999999     -5.7633099999999997
   325   2     -40.024700000000003      2.1395200000000001     -4.6428900000000004
   326   7     -39.444200000000002                 1.07551     -4.6905299999999999
   327   7                -40.5944      2.7633399999999999     -3.5160900000000002
   328   2     -41.351799999999997      3.9513500000000001     -3.8817900000000001
   329   4                -41.0336      4.8814399999999996                -3.37995
   330   4     -42.428400000000003      3.7656499999999999     -3.8105899999999999
   331   2     -23.634799999999998      2.3707600000000002      14.212199999999999
   332   4     -24.742999999999999                 1.98526                 14.0989
   333   4     -23.642399999999999      3.3018800000000001      13.703099999999999
   334   7     -22.747699999999998                 1.34135      13.821300000000001
   335   2     -21.981100000000001     0.92060200000000003                 14.8453
   336   7     -20.984400000000001                0.238038      14.575799999999999
   337   7     -22.353300000000001                 1.36696      16.084099999999999
   338   2                -23.2925      2.4874000000000001                 15.7601
   339   4     -22.708200000000001      3.3613400000000002                 15.8543
   340   4     -24.177700000000002      2.4582899999999999      16.397500000000001
   341   2                -30.2835      2.3416899999999998                 11.4435
   342   4     -30.576799999999999      2.7859600000000002                 10.5185
   343   4                -29.3096                 1.73465      11.297800000000001
   344   7                -31.3307      1.4002300000000001                 11.8066
   345   2                -31.9559      1.8391900000000001                 12.9467
   346   7     -32.811799999999998      1.2579199999999999      13.550700000000001
   347   7                -31.5245      3.1234700000000002      13.267200000000001
   348   2     -30.267600000000002                 3.30755                 12.5885
   349   4     -29.468800000000002      3.0428600000000001      13.311199999999999
   350   4     -30.042300000000001      4.3288099999999998                 12.3284
   351   2     -22.891999999999999     -8.3589099999999998      1.0565100000000001
   352   4                -22.6065     -7.4535999999999998                0.584291
   353   4     -22.543199999999999     -9.2229399999999995     0.51046599999999998
   354   7     -24.386299999999999     -8.4665300000000006                 1.03373
   355   2     -24.715900000000001     -9.1376200000000001                 2.08222
   356   7                 -25.759                -9.76187      2.2705799999999998
   357   7     -23.647400000000001     -9.1243200000000009      3.0825100000000001
   358   2                -22.5428     -8.3941400000000002      2.5851899999999999
   359   4     -21.532399999999999     -8.9107199999999995      2.6391800000000001