(written by ASE)

888 atoms
9 atom types

0.0      21.553999999999998  xlo xhi
0.0      21.553999999999998  ylo yhi
0.0                  21.544  zlo zhi

Atoms # atomic

     1   2     -32.941899999999997                -13.0479      20.930099999999999
     2   4     -33.920400000000001                -12.6365                 20.8246
     3   4     -32.851999999999997     -13.425000000000001      21.936800000000002
     4   7     -32.022100000000002     -11.885400000000001      20.811299999999999
     5   2     -31.596399999999999                -11.8154      19.564800000000002
     6   7     -30.891100000000002                -10.9398      19.146699999999999
     7   7     -32.019599999999997                -12.8611      18.835699999999999
     8   2     -32.444200000000002                -13.9018      19.792999999999999
     9   4                -31.5352                -14.4427      20.167000000000002
    10   4     -33.203099999999999                -14.6173                 19.3431
    11   2     -26.943899999999999     -5.9182699999999997      5.7725799999999996
    12   4     -26.159099999999999     -6.1196299999999999      6.5602900000000002
    13   4                -27.1358      16.715900000000001      5.7314499999999997
    14   7     -28.081900000000001     -6.7915900000000002      6.0921000000000003
    15   2                -28.5168     -7.2457099999999999      4.8879799999999998
    16   7     -29.571100000000001     -7.8652100000000003      4.7141599999999997
    17   7     -27.712299999999999     -6.9275200000000003                 3.83954
    18   2                -26.4618     -6.4529699999999997      4.3594900000000001
    19   4                -26.0487     -5.5797400000000001                 3.84782
    20   4                -25.7378     -7.2686700000000002      4.4430399999999999
    21   2                -27.6999     -2.6853400000000001      3.8634499999999998
    22   4                 -28.706                -2.99519      4.1842300000000003
    23   4     -26.884499999999999     -3.2347800000000002      4.3397199999999998
    24   7     -27.621200000000002     -1.2700899999999999                 4.19095
    25   2     -26.957799999999999    -0.63684799999999997      3.2126000000000001
    26   7     -26.708400000000001     0.58665999999999996      3.3229199999999999
    27   7     -26.879000000000001                -1.37643      2.0696300000000001
    28   2                -27.5381     -2.6789800000000001                 2.27996
    29   4     -26.904599999999999     -3.5436200000000002                 1.88236
    30   4     -28.511800000000001                -2.59117                 1.86287
    31   2                -14.6806      1.1731400000000001     -3.0744799999999999
    32   4     -13.776899999999999                0.559867     -2.9845299999999999
    33   4     -15.537599999999999     0.45045299999999999     -2.8735400000000002
    34   7                -14.8161                  1.8065     -4.3361499999999999
    35   2     -14.517799999999999      3.1569699999999998     -4.1317399999999997
    36   7                -14.4566      4.0070600000000001                 -5.0286
    37   7     -14.215999999999999      3.4800200000000001                -2.86503
    38   2                -14.6279      2.3315299999999999     -2.0356100000000001
    39   4     -15.594099999999999      2.5668799999999998     -1.6775199999999999
    40   4                -13.9269      2.1397699999999999                -1.19065
    41   2                -22.2135     -6.6346499999999997      18.077100000000002
    42   4     -21.728200000000001     -6.5732699999999999      17.159800000000001
    43   4                -22.0686     -7.5491299999999999                 18.5916
    44   7                -23.7011     -6.3528000000000002      17.946300000000001
    45   2     -24.027100000000001     -5.6598600000000001                 19.0654
    46   7     -25.183499999999999     -5.4943099999999996      19.413900000000002
    47   7                -22.9466     -5.0876400000000004      19.682400000000001
    48   2                -21.7333     -5.3780999999999999      18.953499999999998
    49   4     -20.957100000000001     -5.5175200000000002      19.737500000000001
    50   4     -21.515499999999999     -4.6194199999999999      18.183299999999999
    51   2     -16.610600000000002      10.880000000000001                 14.4155
    52   4     -16.422000000000001                 11.8565      13.941000000000001
    53   4     -16.125299999999999                 10.7447                 15.3675
    54   7     -16.294899999999998                -11.8286                 13.5166
    55   2     -17.389700000000001     -12.616099999999999      13.417299999999999
    56   7     -17.276499999999999     -13.678900000000001                 12.8917
    57   7                -18.5167      9.5323100000000007                 13.8561
    58   2                -18.0626                 10.6699                 14.6744
    59   4     -18.308800000000002                 10.5771                 15.7918
    60   4     -18.557099999999998                   11.48                 14.0985
    61   2     -20.614000000000001     -1.6058399999999999      17.326699999999999
    62   4     -21.125900000000001               -0.644563      17.345700000000001
    63   4     -21.071999999999999     -2.2423999999999999      16.574400000000001
    64   7                -20.6845     -2.2101099999999998      18.667300000000001
    65   2                -19.4468                -2.58521                 19.1036
    66   7                -19.2439     -3.2464200000000001                 20.0459
    67   7     -18.472899999999999     -2.0901399999999999      18.283899999999999
    68   2     -19.072500000000002                -1.42299                 17.1647
    69   4                -18.5838                -1.83527                 16.2622
    70   4     -18.831700000000001    -0.41942299999999999      17.168900000000001
    71   2     -26.847200000000001      5.8211700000000004                -1.40235
    72   4     -26.281600000000001      6.3534199999999998               -0.576932
    73   4                -26.3475      4.9113100000000003     -1.5944499999999999
    74   7     -26.797699999999999      6.6651499999999997     -2.6462599999999998
    75   2     -27.975300000000001     -14.167999999999999     -2.7864300000000002
    76   7     -28.153300000000002                -13.3469     -3.6368800000000001
    77   7                -28.9404      6.9474099999999996                -1.87727
    78   2     -28.311299999999999      5.8183100000000003     -1.1130899999999999
    79   4     -28.701599999999999                 4.89297     -1.4898100000000001
    80   4     -28.351500000000001      5.8393199999999998             -0.00112539
    81   2     -30.159700000000001     -12.201599999999999                  10.192
    82   4     -31.159099999999999                -12.3277                 10.5763
    83   4     -29.359999999999999                -12.7088                 10.8439
    84   7     -29.849399999999999     -10.801299999999999      10.183400000000001
    85   2                -29.3992     -10.345499999999999      8.9302499999999991
    86   7     -28.948399999999999     -9.2789199999999994      8.6618499999999994
    87   7                -29.6309     -11.358499999999999      8.0035500000000006
    88   2                -30.0687     -12.648099999999999      8.6796600000000002
    89   4     -29.200800000000001     -13.238799999999999      8.4170700000000007
    90   4     -31.028700000000001                -12.9419      8.2213399999999996
    91   2                -18.2303     -9.6419599999999992      22.872399999999999
    92   4     -18.250599999999999     -10.469900000000001      22.172899999999998
    93   4     -18.113700000000001                -10.0702      23.899799999999999
    94   7     -19.422599999999999     -8.8546999999999993      22.840199999999999
    95   2     -19.151599999999998     -7.6890299999999998                 22.0471
    96   7     -19.979399999999998     -6.8702100000000002      21.665800000000001
    97   7                -17.7804     -7.5471899999999996      21.902799999999999
    98   2     -17.043399999999998     -8.6889500000000002      22.526900000000001
    99   4     -16.583100000000002     -8.3177800000000008      23.440100000000001
   100   4     -16.245899999999999     -9.0034700000000001      21.851800000000001
   101   2                -19.1327     -4.7028800000000004      8.0886399999999998
   102   4     -18.488499999999998     -4.7404900000000003      9.0226299999999995
   103   4     -18.599599999999999     -5.3845700000000001      7.3999800000000002
   104   7     -18.848500000000001     -3.3427099999999998      7.5406899999999997
   105   2     -19.953700000000001     -2.5738699999999999      7.6638200000000003
   106   7     -19.944299999999998                -1.40002      7.3402000000000003
   107   7                -20.9511     -3.1011899999999999                 8.38462
   108   2                -20.6068     -4.6034199999999998      8.3385999999999996
   109   4     -21.169499999999999     -4.9739899999999997      7.4435900000000004
   110   4                -20.8308     -5.1147600000000004      9.2323599999999999
   111   2                -25.1204      4.9590100000000001     -5.4215499999999999
   112   4     -25.976500000000001      5.3277000000000001      16.622699999999998
   113   4                -25.2986      3.9254600000000002     -5.9386999999999999
   114   7                -24.2117      4.5153299999999996     -4.3059900000000004
   115   2                -23.0199                 5.14229     -4.4084599999999998
   116   7     -22.075700000000001      4.8281099999999997     -3.7497699999999998
   117   7     -22.927900000000001      5.9625199999999996     -5.5634300000000003
   118   2     -24.203800000000001      5.9898800000000003     -6.2506300000000001
   119   4     -24.108899999999998      5.8181000000000003     -7.3311799999999998
   120   4     -24.498999999999999                 7.02163                 15.2805
   121   2     -38.374600000000001                -12.9643      21.922499999999999
   122   4     -39.411700000000003                -13.0236      21.481100000000001
   123   4     -38.304600000000001     -12.478400000000001      22.921099999999999
   124   7     -37.582700000000003                -12.2125      20.949100000000001
   125   2     -36.463700000000003                -12.9901                 20.5733
   126   7     -35.627499999999998                -12.6432      19.753399999999999
   127   7     -36.441299999999998     -14.122999999999999      21.236899999999999
   128   2     -37.622999999999998     -14.312900000000001      22.078399999999998
   129   4     -37.235999999999997     -14.494400000000001      23.081499999999998
   130   4     -38.219900000000003                 -15.202      21.749700000000001
   131   2     -16.752700000000001     -7.5477800000000004                 19.0243
   132   4     -16.569700000000001     -7.2822399999999998                 20.1294
   133   4     -16.395700000000001     -6.6459999999999999                 18.4453
   134   7     -18.138200000000001     -7.6119399999999997      18.773499999999999
   135   2     -18.439599999999999     -8.7390600000000003      18.003399999999999
   136   7                -19.5505     -9.0317100000000003      17.647099999999998
   137   7                -17.3675     -9.4689300000000003                 17.7987
   138   2                -16.2761     -8.9316800000000001      18.651499999999999
   139   4     -15.312799999999999     -9.0420700000000007      18.170400000000001
   140   4     -16.344000000000001     -9.5836500000000004                 19.5303
   141   2     -10.367900000000001     -3.8948299999999998      4.9665299999999997
   142   4     -10.236700000000001     -3.8696299999999999                 3.85277
   143   4     -32.884999999999998     -3.4368500000000002      5.2674399999999997
   144   7     -30.839500000000001     -3.3134999999999999      5.7617700000000003
   145   2                -30.1831     -4.1682699999999997      6.5689599999999997
   146   7     -29.174900000000001     -3.8597700000000001      7.1953399999999998
   147   7     -9.2326200000000007     -5.4437699999999998      6.4314099999999996
   148   2     -10.315200000000001     -5.3593200000000003      5.4650299999999996
   149   4                -11.2384     -5.5602099999999997      5.9462799999999998
   150   4                -10.1937     -6.0035299999999996      4.6252700000000004
   151   2     -27.077100000000002                -11.6937                 11.6317
   152   4     -27.680499999999999     -11.014900000000001                 12.2494
   153   4     -27.251999999999999     -11.583500000000001      10.553900000000001
   154   7     -27.344000000000001     -13.064500000000001      12.047700000000001
   155   2     -26.512599999999999     -13.309900000000001      13.110300000000001
   156   7     -26.659400000000002     -14.143800000000001                 13.9643
   157   7     -25.516300000000001     -12.414300000000001      13.165800000000001
   158   2                 -25.613                -11.6424                 11.9175
   159   4                -25.0915      9.2915700000000001      11.214499999999999
   160   4     -25.060099999999998                  10.942                 11.9162
   161   2     -37.012999999999998     -3.9147799999999999                 19.0547
   162   4     -36.430700000000002                -4.27013      18.144300000000001
   163   4     -38.075499999999998     -4.1713500000000003                 19.0198
   164   7     -36.962800000000001     -2.4077099999999998      18.978999999999999
   165   2     -37.006399999999999     -2.0137700000000001      20.259699999999999
   166   7     -15.684100000000001    -0.84134399999999998                 20.6233
   167   7                -36.6616                -2.98814      21.179600000000001
   168   2     -36.465699999999998     -4.2728799999999998      20.451599999999999
   169   4                -37.0944     -5.0271100000000004      20.999500000000001
   170   4     -35.392400000000002                -4.49939                 20.5228
   171   2                -12.0345     -5.3055199999999996                 14.8771
   172   4                -11.4312     -6.1283500000000002      15.336499999999999
   173   4                -12.0771                -5.40327                  13.794
   174   7                -11.3392     -4.0484299999999998                 15.1191
   175   2                -12.1264     -3.3085900000000001                 16.0501
   176   7                -11.7081                -2.30084      16.566099999999999
   177   7                -13.3215     -3.8295599999999999                 16.2377
   178   2     -13.377800000000001     -5.1492899999999997                 15.4887
   179   4                -14.1854     -5.0821699999999996                 14.7393
   180   4     -13.714499999999999     -5.8598499999999998      16.250800000000002
   181   2     -22.032699999999998     -11.866199999999999      4.5256299999999996
   182   4     -22.386299999999999                 10.5449      4.0040100000000001
   183   4     -22.828399999999998                -12.5494      4.9305099999999999
   184   7                -21.2713      10.081099999999999      5.7368199999999998
   185   2     -20.199100000000001     -12.350099999999999                 5.83697
   186   7     -19.318200000000001                 -12.208                 6.65801
   187   7     -20.087299999999999                -13.1547      4.7620800000000001
   188   2     -21.161300000000001     -12.880100000000001      3.8156099999999999
   189   4     -21.742000000000001     -13.789899999999999      3.6473800000000001
   190   4     -20.681999999999999                -12.5748                 24.4831
   191   2     -24.742599999999999    -0.71048800000000001      18.435400000000001
   192   4                -23.8369    -0.60769899999999999      19.120699999999999
   193   4                -24.6235                0.315307      18.025700000000001
   194   7                -25.9316    -0.78636300000000003                 19.2607
   195   2     -26.334599999999998                -2.10825      19.335999999999999
   196   7     -27.123799999999999     -2.5802399999999999      20.138100000000001
   197   7     -25.703399999999998     -2.8108900000000001      18.358499999999999
   198   2     -24.752300000000002                -1.97993                 17.6464
   199   4     -25.209800000000001     -1.7878099999999999      16.660799999999998
   200   4                -23.7059     -2.4546399999999999      17.637699999999999
   201   2     -23.204000000000001     -3.0676899999999998      22.027999999999999
   202   4     -23.283899999999999     -2.1373500000000001                  22.666
   203   4     -22.834399999999999                -2.83371      21.004300000000001
   204   7     -24.596800000000002     -3.4055200000000001      21.672799999999999
   205   2     -24.838000000000001     -4.6800800000000002      22.212399999999999
   206   7     -25.917200000000001     -5.2148599999999998      22.114000000000001
   207   7                -23.7058     -5.2436600000000002      1.0976399999999999
   208   2     -22.604399999999998     -4.2907900000000003                 1.06782
   209   4     -21.786300000000001     -4.7253100000000003     0.51129899999999995
   210   4     -22.229800000000001     -4.0669700000000004      2.0622799999999999
   211   2                -10.8673     -8.2798800000000004      19.710799999999999
   212   4                -10.1477     -9.0567899999999995      19.404800000000002
   213   4                -10.2728     -7.5949900000000001      20.348099999999999
   214   7     -11.892300000000001     -8.8263599999999993      20.555599999999998
   215   2     -13.120900000000001     -8.3427399999999992      20.194600000000001
   216   7                -14.1187     -8.4947400000000002                 20.8977
   217   7     -12.958600000000001     -7.4782500000000001     -2.4202900000000001
   218   2     -11.639699999999999     -7.5046600000000003     -2.8890899999999999
   219   4     -32.758299999999998                 -6.4897                -2.96116
   220   4                -11.6244     -8.1127199999999995                -3.76546
   221   2     -22.950900000000001      13.491300000000001      15.008599999999999
   222   4     -22.562200000000001                 14.4213      14.629099999999999
   223   4     -23.504999999999999                 13.5162                 15.9069
   224   7     -21.822900000000001      12.649100000000001                 15.3192
   225   2     -22.052499999999998                  11.401                 14.7996
   226   7     -21.372299999999999                 10.4132                 15.0067
   227   7     -23.236699999999999      11.335100000000001      14.011699999999999
   228   2     -23.648099999999999                 12.7142      13.845800000000001
   229   4     -24.706499999999998      12.657500000000001      13.982699999999999
   230   4                -23.3965      13.114800000000001      12.835000000000001
   231   2     -35.029499999999999      7.3849200000000002      17.266200000000001
   232   4     -34.529299999999999      8.3748400000000007      17.102900000000002
   233   4                -34.8767      7.0498500000000002      18.354800000000001
   234   7     -34.463200000000001      6.4115599999999997      16.331700000000001
   235   2     -35.275399999999998      6.2772399999999999                 15.2181
   236   7     -13.467000000000001      5.7370200000000002                  14.193
   237   7     -36.475900000000003      6.9684999999999997      15.456200000000001
   238   2     -36.533299999999997                 7.50718      16.816299999999998
   239   4     -37.239400000000003      6.8068200000000001      17.329499999999999
   240   4     -36.985100000000003      8.5148700000000002      16.807200000000002
   241   2     -33.781399999999998     -9.2718500000000006      6.8729699999999996
   242   4     -34.444000000000003     -8.6665899999999993      6.2222499999999998
   243   4     -34.058399999999999     -10.289899999999999                  7.0972
   244   7     -33.697499999999998     -8.6378000000000004      8.2675199999999993
   245   2     -32.409399999999998     -8.2577800000000003      8.4670799999999993
   246   7     -31.995999999999999     -7.7085699999999999      9.4561600000000006
   247   7     -31.553699999999999     -8.4964399999999998      7.4303999999999997
   248   2     -32.316200000000002     -9.2127300000000005      6.3298100000000002
   249   4     -31.871400000000001     -10.177300000000001      6.2189800000000002
   250   4     -32.191699999999997     -8.6643100000000004      5.4271599999999998
   251   2     -24.826799999999999     -6.3050499999999996      9.6159999999999997
   252   4                -24.1004     -5.6484699999999997                 10.1813
   253   4     -24.506599999999999     -6.3181700000000003      8.5142299999999995
   254   7     -26.139500000000002     -5.8207800000000001      9.8416300000000003
   255   2     -26.933700000000002     -6.7940699999999996                 10.2729
   256   7                -28.1418     -6.7072500000000002                 10.4481
   257   7                -26.2849     -7.8757700000000002                 10.6221
   258   2     -24.917100000000001     -7.8167200000000001                 10.0403
   259   4     -24.985099999999999     -8.4032300000000006      9.0642600000000009
   260   4                 -24.154     -8.1514399999999991      10.802099999999999
   261   2                -25.6311      9.3404600000000002      16.421299999999999
   262   4     -25.280999999999999                 9.07362                  15.395
   263   4     -26.604600000000001      8.8497800000000009      16.438500000000001
   264   7     -25.834199999999999                 10.7287      16.616199999999999
   265   2     -24.940899999999999                 11.2455      17.562000000000001
   266   7     -24.923400000000001                   12.43      17.963899999999999
   267   7     -24.190300000000001      10.315099999999999      18.055700000000002
   268   2     -24.871400000000001      9.0545799999999996      17.691700000000001
   269   4     -25.572800000000001      8.8790499999999994      18.554200000000002
   270   4     -24.083100000000002      8.3201499999999999                 17.5002
   271   2     -31.896899999999999     -7.6397899999999996                 12.5168
   272   4     -32.491300000000003     -7.6825999999999999      11.605600000000001
   273   4     -32.551900000000003     -7.7757399999999999                  13.337
   274   7     -31.363099999999999     -6.2115999999999998                 12.6891
   275   2     -30.106300000000001     -6.3349500000000001                 13.2658
   276   7     -29.372499999999999     -5.4396699999999996                 13.6668
   277   7     -29.665500000000002     -7.6402400000000004      13.273400000000001
   278   2     -30.675799999999999     -8.5426500000000001      12.642099999999999
   279   4     -30.789000000000001     -9.3984199999999998                 13.3332
   280   4     -30.201499999999999     -8.8142200000000006      11.673400000000001
   281   2     -36.158900000000003                 10.3622                 10.3598
   282   4     -37.214399999999998                 10.4772                 10.1722
   283   4     -35.958300000000001                 11.1488      11.072800000000001
   284   7     -35.288699999999999                -11.0684      9.0936400000000006
   285   2     -34.363300000000002     -12.083399999999999      9.1257000000000001
   286   7                -33.4803                -12.1434      8.2384699999999995
   287   7     -34.520699999999998                 -12.903                 10.1645
   288   2     -35.680500000000002      9.0264100000000003                 10.9962
   289   4     -35.398000000000003      9.0355399999999992                 12.0871
   290   4     -36.429200000000002      8.2445299999999992      10.825200000000001
   291   2     -25.984000000000002      5.8943000000000003      5.9904799999999998
   292   4                -25.8721      5.3059599999999998      6.9021100000000004
   293   4     -26.095800000000001      6.9455400000000003                 6.13049
   294   7     -27.280999999999999      5.4313200000000004      5.4902699999999998
   295   2                -27.0808      4.8242200000000004      4.3384999999999998
   296   7     -27.997499999999999      4.2857200000000004      3.7610600000000001
   297   7     -25.818999999999999      4.8559200000000002      3.8299300000000001
   298   2     -25.036100000000001                 5.64656      4.8055099999999999
   299   4     -24.713200000000001      6.5733199999999998      4.3724600000000002
   300   4     -24.156600000000001      5.0824699999999998      5.0613000000000001
   301   2                -25.7212                 10.2699      5.9405799999999997
   302   4     -26.484300000000001      11.121499999999999      5.9703999999999997
   303   4     -25.642800000000001      9.9581400000000002      4.8828800000000001
   304   7     -26.321999999999999      9.1266400000000001                 6.63028
   305   2     -25.965800000000002                 9.07395      7.9071699999999998
   306   7                -26.3233      8.2495799999999999      8.7186400000000006
   307   7     -24.984300000000001      9.9643999999999995                 8.12608
   308   2     -24.566700000000001      10.667999999999999      6.8957100000000002
   309   4     -23.569500000000001                  10.205      6.6682399999999999
   310   4     -24.550599999999999                 11.7248      7.0679299999999996
   311   2     -20.755099999999999     -9.4374599999999997                  10.067
   312   4     -20.095199999999998     -9.0269100000000009      9.2877799999999997
   313   4                -21.4053     -10.202400000000001      9.6484199999999998
   314   7     -21.590800000000002     -8.3050700000000006                 10.4793
   315   2     -21.142600000000002     -7.7728400000000004      11.658899999999999
   316   7                -21.4588     -6.7348600000000003                 12.1599
   317   7     -20.234500000000001     -8.5884999999999998      12.218299999999999
   318   2     -20.103200000000001     -9.8440700000000003                 11.3582
   319   4     -20.761500000000002     -10.470000000000001                 11.8992
   320   4                -19.1312                -10.2034                 11.4407
   321   2     -17.995699999999999                 5.11022     -5.5710100000000002
   322   4                -18.3734      5.3040900000000004     -6.5811099999999998
   323   4     -17.271000000000001      5.8110200000000001     -5.2009999999999996
   324   7     -38.806899999999999                 3.81711     -5.5712799999999998
   325   2     -39.683700000000002      2.8803399999999999     -5.2093100000000003
   326   7     -39.495399999999997                 1.65686     -5.3398099999999999
   327   7     -40.667999999999999      3.3626499999999999     -4.4697500000000003
   328   2     -40.633899999999997      4.7875800000000002     -4.4898800000000003
   329   4     -40.291400000000003      4.9976099999999999                -3.49153
   330   4     -41.665900000000001      5.1274499999999996     -4.6557500000000003
   331   2                -23.0657      2.0039400000000001      13.588200000000001
   332   4     -23.976900000000001                 1.38968      13.315099999999999
   333   4     -22.900400000000001                 2.83352                 12.9411
   334   7     -21.908899999999999      1.1507400000000001                 13.2517
   335   2                -21.3477     0.79427599999999998      14.440899999999999
   336   7     -20.313300000000002     0.16844799999999999                 14.6465
   337   7                -21.8474      1.4524699999999999                 15.4634
   338   2     -22.912199999999999      2.3301799999999999      15.067600000000001
   339   4     -22.559000000000001      3.4308399999999999                 15.2012
   340   4     -23.819199999999999                 2.01126                 15.5619
   341   2     -27.770299999999999      1.9546699999999999      11.663600000000001
   342   4     -27.649899999999999      2.7902999999999998                 10.8743
   343   4                -27.1358                 1.12317                 11.3095
   344   7     -29.187999999999999                 1.57989                 11.5649
   345   2                -29.8188      2.0506500000000001      12.680400000000001
   346   7     -31.033999999999999      2.1417600000000001      12.737299999999999
   347   7     -28.932400000000001      2.3057799999999999                  13.721
   348   2     -27.632200000000001      2.3907099999999999                 13.0791
   349   4     -26.995100000000001      1.8891100000000001                 13.7257
   350   4     -27.354600000000001      3.4216700000000002                 13.1686
   351   2     -23.803100000000001     -9.0864399999999996    -0.48438300000000001
   352   4     -23.710799999999999     -8.4726599999999994                -1.37873
   353   4     -23.867799999999999                -10.1427    -0.78257600000000005
   354   7     -24.982900000000001     -8.6937700000000007     0.26021300000000003
   355   2     -24.677099999999999                -8.88246                 1.58911
   356   7     -25.467199999999998     -8.8747000000000007      2.4974599999999998
   357   7                -23.3337     -9.1111500000000003      1.7032099999999999
   358   2     -22.636800000000001     -8.8701000000000008     0.43407099999999998
   359   4     -21.828700000000001     -9.6595300000000002     0.36042299999999999