(written by ASE)

888 atoms
9 atom types

0.0      21.553999999999998  xlo xhi
0.0      21.553999999999998  ylo yhi
0.0                  21.544  zlo zhi

Atoms # atomic

     1   2     -32.481499999999997     -12.464700000000001      20.561499999999999
     2   4     -33.229900000000001     -12.601000000000001      21.308700000000002
     3   4     -31.518599999999999                -12.5372      21.041399999999999
     4   7     -32.535899999999998                -11.1617                 19.9239
     5   2     -32.503700000000002                -11.3066      18.571000000000002
     6   7     -32.496699999999997                -10.3935      17.805700000000002
     7   7     -32.631700000000002     -12.613899999999999      18.246400000000001
     8   2     -32.648000000000003     -13.425700000000001      19.398299999999999
     9   4     -31.878599999999999                -14.2676      19.362200000000001
    10   4                -33.6417     -14.016500000000001                 19.3263
    11   2     -26.472999999999999     -6.2203400000000002      5.4858500000000001
    12   4                -25.7011                -6.61578      6.1245000000000003
    13   4     -26.789899999999999      16.411300000000001      5.7100400000000002
    14   7     -27.577200000000001     -7.1992500000000001                 5.78348
    15   2                -28.3369     -7.2765700000000004                 4.63605
    16   7     -29.427099999999999     -7.8315400000000004      4.6617199999999999
    17   7     -27.647400000000001     -6.7311100000000001      3.5946199999999999
    18   2                -26.3019     -6.3747499999999997      4.0195499999999997
    19   4                -25.8962     -5.5283800000000003      3.4379900000000001
    20   4     -25.686499999999999     -7.2365899999999996      3.7496700000000001
    21   2     -27.555700000000002     -2.8779300000000001      2.5971000000000002
    22   4     -28.253599999999999     -3.1131899999999999                 1.79786
    23   4                -27.0168     -3.7729599999999999      3.0018099999999999
    24   7                -28.3246     -2.2771599999999999      3.6583999999999999
    25   2     -28.185099999999998    -0.91860699999999995      3.5155400000000001
    26   7                -28.8886    -0.15323400000000001      4.1821999999999999
    27   7     -27.193300000000001    -0.58410200000000001      2.6554899999999999
    28   2     -26.552499999999998     -1.7742899999999999      2.1521300000000001
    29   4     -25.565000000000001     -1.8481000000000001      2.6114999999999999
    30   4     -26.470199999999998     -1.6205400000000001                 1.02782
    31   2                -14.7364      2.2248000000000001     -2.2178800000000001
    32   4     -13.792899999999999      1.8459099999999999     -1.9651099999999999
    33   4                -15.4703                  1.7094     -1.5279400000000001
    34   7                -15.0746                 1.96261     -3.6091500000000001
    35   2     -14.852499999999999      3.1728999999999998     -4.2606000000000002
    36   7     -14.811999999999999      3.2643599999999999     -5.4293300000000002
    37   7                -14.6069      4.2006300000000003     -3.3986299999999998
    38   2                -14.8119      3.7385899999999999     -2.0200200000000001
    39   4                -15.7813      4.0271100000000004                -1.62222
    40   4                -14.0044      4.2441899999999997     -1.3684099999999999
    41   2                 -20.753     -6.7029500000000004      18.539999999999999
    42   4     -20.321999999999999     -6.6676500000000001      17.593900000000001
    43   4     -20.267900000000001     -7.2920499999999997      19.346800000000002
    44   7                -22.1374     -7.1136999999999997                 18.3093
    45   2                -22.9788     -6.1197600000000003      18.718900000000001
    46   7     -24.204599999999999     -6.1534300000000002      18.705500000000001
    47   7     -22.334499999999998                -5.00129      19.135300000000001
    48   2     -20.964500000000001     -5.2806199999999999      19.111899999999999
    49   4     -20.562000000000001     -5.2229799999999997                 20.0761
    50   4     -20.407399999999999     -4.5751499999999998      18.439699999999998
    51   2     -17.197399999999998                 11.0403      14.815300000000001
    52   4     -16.449100000000001      11.689399999999999      15.339600000000001
    53   4     -18.215800000000002                 11.1312      15.109500000000001
    54   7     -16.754000000000001                -11.8881                 15.0693
    55   2     -16.915199999999999                -12.6615                 13.9992
    56   7     -16.757000000000001     -13.872999999999999      13.937799999999999
    57   7                -17.4117      9.6785200000000007                 12.8973
    58   2     -17.100300000000001      11.074299999999999                 13.1813
    59   4     -17.901900000000001      11.670199999999999      12.720599999999999
    60   4     -16.084900000000001      11.264200000000001      12.668699999999999
    61   2     -19.846299999999999     -1.7346900000000001      17.739699999999999
    62   4     -19.891400000000001    -0.61037799999999998      17.760000000000002
    63   4     -20.668399999999998     -1.9943900000000001                 17.0319
    64   7     -20.136099999999999     -2.4118300000000001                 18.8919
    65   2     -18.911799999999999     -2.7115499999999999      19.590800000000002
    66   7     -18.866499999999998     -3.0596000000000001                 20.7303
    67   7     -17.883400000000002     -2.5289299999999999      18.783200000000001
    68   2                -18.3719     -2.0957300000000001                 17.4346
    69   4     -18.242599999999999     -2.9750299999999998                 16.7102
    70   4     -17.815799999999999     -1.2619800000000001      17.045100000000001
    71   2     -27.972799999999999      6.0123600000000001     -2.7517100000000001
    72   4     -26.937799999999999      6.0574199999999996     -2.4093900000000001
    73   4                -28.1556      5.1817900000000003     -3.4751699999999999
    74   7     -28.291799999999999      7.3342900000000002     -3.2061500000000001
    75   2     -29.211300000000001                -13.6724     -2.3180499999999999
    76   7     -29.672699999999999                -12.5688     -2.5453199999999998
    77   7     -29.426300000000001      7.1062900000000004     -1.2532700000000001
    78   2     -28.876300000000001      5.7848800000000002     -1.5542899999999999
    79   4                -29.6693      5.0485699999999998                -1.81768
    80   4     -28.279299999999999      5.4384399999999999    -0.71776499999999999
    81   2                -30.4697                -12.4504      8.7424199999999992
    82   4     -31.363299999999999                -12.8604      9.1113400000000002
    83   4     -29.707899999999999                -13.0983      9.2313899999999993
    84   7                -30.2788                -11.0966      9.3598800000000004
    85   2     -29.529199999999999                -10.3674                 8.56616
    86   7                 -28.948     -9.3056400000000004      8.8857300000000006
    87   7     -29.318000000000001                -10.9747      7.3783899999999996
    88   2     -30.200600000000001                 -12.145      7.2372300000000003
    89   4     -29.753699999999998                -12.9688      6.6043900000000004
    90   4     -31.172699999999999     -11.871600000000001      6.8289200000000001
    91   2     -17.194800000000001     -9.2605900000000005                 22.6784
    92   4                -17.2605     -10.080399999999999      21.939299999999999
    93   4     -16.977900000000002     -9.7653999999999996      23.589099999999998
    94   7     -18.604600000000001     -8.6652400000000007      22.755299999999998
    95   2     -18.599699999999999     -7.5876599999999996      21.840900000000001
    96   7     -19.613600000000002     -6.9739000000000004      21.542100000000001
    97   7     -17.388300000000001     -7.3632499999999999                 21.3629
    98   2                -16.4224     -8.0375499999999995                 22.2484
    99   4     -16.215699999999998     -7.4397000000000002      23.164999999999999
   100   4     -15.539199999999999     -8.2959300000000002                   21.66
   101   2     -20.213699999999999     -4.9616199999999999      7.9344299999999999
   102   4                -19.3371     -5.3700200000000002      8.5019299999999998
   103   4                -20.5243     -5.7624500000000003      7.2368899999999998
   104   7                -19.7135     -3.7380399999999998      7.2453399999999997
   105   2     -20.500299999999999     -2.7403599999999999      7.5715899999999996
   106   7     -20.236899999999999     -1.6224499999999999      7.1703099999999997
   107   7     -21.472799999999999     -3.0592299999999999      8.4585299999999997
   108   2     -21.333300000000001     -4.4552399999999999      8.8611000000000004
   109   4     -22.405000000000001     -4.8027100000000003      8.7723700000000004
   110   4     -21.058900000000001     -4.5412100000000004      9.9024599999999996
   111   2     -24.926500000000001      4.9412000000000003     -6.2627199999999998
   112   4                -25.9254      4.7721099999999996      14.758599999999999
   113   4                -24.7044                 3.85405     -5.9622700000000002
   114   7     -24.920200000000001      5.8144499999999999     -5.1062099999999999
   115   2     -23.824400000000001      6.6227600000000004                 -5.0865
   116   7     -23.504000000000001      7.2731199999999996     -4.1477000000000004
   117   7                -23.1494      6.5709400000000002     -6.2709599999999996
   118   2                -24.0001      5.7380399999999998     -7.1950799999999999
   119   4     -23.336099999999998      5.1166299999999998     -7.8427699999999998
   120   4     -24.604299999999999      6.3740399999999999      13.745799999999999
   121   2     -38.180799999999998                -13.3461      22.527000000000001
   122   4     -38.884599999999999     -12.531599999999999      22.639600000000002
   123   4     -37.882899999999999                -13.4381      23.565999999999999
   124   7     -37.049999999999997                 -12.881                 21.6968
   125   2     -36.884799999999998                -13.7319      20.654299999999999
   126   7     -36.058399999999999                -13.6248                 19.7636
   127   7     -37.724800000000002     -14.816800000000001                  20.762
   128   2     -38.659799999999997     -14.559699999999999      21.838000000000001
   129   4     -38.505299999999998     -15.468999999999999      22.433900000000001
   130   4     -39.597200000000001     -14.555300000000001      21.309000000000001
   131   2     -15.014099999999999     -9.3527100000000001                 17.9316
   132   4     -14.231299999999999     -8.5986799999999999      18.228400000000001
   133   4     -14.791499999999999     -9.6295000000000002                 16.8888
   134   7     -16.270600000000002     -8.6880100000000002      17.941800000000001
   135   2     -17.280200000000001     -9.4086200000000009      18.542100000000001
   136   7                -18.4436     -9.0722699999999996                 18.6342
   137   7     -16.750699999999998                -10.5472      19.077200000000001
   138   2     -15.257999999999999     -10.528499999999999                  18.919
   139   4                -14.9445                -11.6051      18.723700000000001
   140   4     -14.875500000000001     -10.345700000000001      19.895499999999998
   141   2                 -10.135     -3.8111799999999998      5.4268299999999998
   142   4     -10.720599999999999     -3.0823999999999998      4.8499499999999998
   143   4     -32.415100000000002     -4.4013299999999997                 5.99078
   144   7     -30.788799999999998                 -3.2018      6.3888800000000003
   145   2     -29.638400000000001     -3.9095800000000001      6.4894499999999997
   146   7                -28.7149                -3.62215      7.2002199999999998
   147   7     -8.0718899999999998     -4.8122699999999998      5.4855999999999998
   148   2                -9.22499     -4.6318599999999996      4.5512499999999996
   149   4     -9.6363599999999998     -5.5921799999999999      4.2395899999999997
   150   4     -8.8279999999999994     -4.0489300000000004                 3.65726
   151   2     -27.021599999999999     -11.351699999999999                 12.0846
   152   4     -27.370899999999999                -10.7651      12.912699999999999
   153   4                -27.2913     -10.809799999999999                 11.1477
   154   7     -27.683800000000002     -12.620799999999999                 12.2323
   155   2     -26.771899999999999     -13.507899999999999                 12.7355
   156   7     -26.979900000000001                -14.6416                 13.0535
   157   7     -25.517299999999999     -12.960000000000001                 12.8422
   158   2     -25.515699999999999                -11.6873                 12.1739
   159   4                -25.1173      9.6513600000000004      11.207100000000001
   160   4     -24.849900000000002      10.629099999999999      12.683299999999999
   161   2     -36.675899999999999                -4.35663      19.578800000000001
   162   4     -35.683999999999997     -4.8437599999999996      19.525300000000001
   163   4     -37.486899999999999     -4.7956599999999998      18.942900000000002
   164   7     -36.521500000000003     -3.0099100000000001      18.921299999999999
   165   2     -36.958399999999997     -2.0633900000000001      19.747900000000001
   166   7                -15.4651    -0.91183899999999996      19.476600000000001
   167   7     -37.393300000000004     -2.5861399999999999                 20.9877
   168   2     -37.067599999999999     -4.0305799999999996      21.000699999999998
   169   4     -38.000900000000001     -4.4797099999999999      21.342099999999999
   170   4     -36.196199999999997     -4.1291500000000001                 21.7547
   171   2                -12.0037     -4.1192299999999999      14.597799999999999
   172   4                -11.1539     -4.6814299999999998                 14.2804
   173   4                -12.7956     -4.1030699999999998                 13.7811
   174   7     -11.598599999999999     -2.7236899999999999      14.835699999999999
   175   2                -11.3477     -2.6151300000000002      16.203399999999998
   176   7                -10.7096                -1.73088      16.703600000000002
   177   7     -11.873100000000001     -3.6653500000000001      16.912700000000001
   178   2                -12.5946     -4.5928100000000001      15.948399999999999
   179   4     -13.607900000000001     -4.2283499999999998                 16.0151
   180   4                 -12.304     -5.6429900000000002                 16.1752
   181   2     -21.746400000000001                -11.4917                 5.06534
   182   4     -21.999700000000001      10.909800000000001      4.4487899999999998
   183   4     -22.595400000000001                -12.1225      5.3216599999999996
   184   7     -21.052900000000001                 10.4217      6.3547500000000001
   185   2     -19.978999999999999     -11.972899999999999                 6.48963
   186   7                -19.4268                -12.1122      7.5357099999999999
   187   7     -19.709299999999999                -12.6896      5.3887099999999997
   188   2     -20.616599999999998     -12.376099999999999      4.3239799999999997
   189   4     -21.079699999999999     -13.271699999999999                 3.94217
   190   4                -20.0596                -11.7646      25.151499999999999
   191   2                -24.2334    -0.90112899999999996                 18.5578
   192   4     -23.261500000000002    -0.43538500000000002      18.711400000000001
   193   4     -24.763300000000001    0.023794300000000001                 18.3825
   194   7     -24.776499999999999                -1.68364      19.676300000000001
   195   2     -25.596800000000002     -2.5941700000000001      19.168700000000001
   196   7     -26.368300000000001     -3.2296999999999998                 19.8703
   197   7     -25.469200000000001                -2.69611      17.817399999999999
   198   2     -24.253799999999998                -1.94235      17.421500000000002
   199   4     -24.517099999999999                -1.69363                 16.3627
   200   4                -23.3827     -2.5950000000000002                 17.4937
   201   2                -22.2425     -3.2156500000000001      22.577999999999999
   202   4                -22.1798                -2.64228      23.505800000000001
   203   4     -22.000599999999999                -2.60344      21.677700000000002
   204   7                -23.6248     -3.5621299999999998      22.500399999999999
   205   2                -23.7517                 -4.8487                 22.2803
   206   7                -24.8202     -5.4380699999999997      22.226400000000002
   207   7                -22.5701     -5.5447600000000001     0.81478499999999998
   208   2                -21.5991     -4.5619300000000003      1.2086300000000001
   209   4     -20.706900000000001                -4.82585     0.60575599999999996
   210   4     -21.355399999999999     -4.7856699999999996                  2.2521
   211   2     -10.535600000000001                -7.57456      19.614699999999999
   212   4     -9.8857700000000008     -8.3424600000000009      19.205300000000001
   213   4     -9.9358299999999993                -6.85337                 20.1951
   214   7                -11.6755     -8.0615100000000002      20.356400000000001
   215   2     -12.833500000000001     -7.6822900000000001      19.865100000000002
   216   7                -13.8415     -8.0076900000000002                 20.4923
   217   7     -12.675700000000001     -6.8463599999999998     -2.7281399999999998
   218   2     -11.287800000000001     -6.6952100000000003     -3.0251399999999999
   219   4     -32.627499999999998     -5.6094799999999996     -3.0220699999999998
   220   4                -11.1159     -6.9472300000000002     -4.0728099999999996
   221   2     -22.049700000000001      12.949400000000001                 15.2539
   222   4                -21.5581      13.427199999999999      14.444800000000001
   223   4     -22.361599999999999                 13.7271      16.018599999999999
   224   7                -21.1798                 12.0732                 15.9413
   225   2     -21.526399999999999                 10.7484      15.643700000000001
   226   7     -20.917200000000001      9.7488100000000006                 16.0137
   227   7     -22.648099999999999                 10.7136                 14.8329
   228   2     -23.247399999999999      12.033300000000001      14.853199999999999
   229   4     -24.023700000000002                 11.9635      15.667299999999999
   230   4     -23.587900000000001                 12.2712      13.856400000000001
   231   2     -35.200099999999999      8.8254999999999999                 15.9687
   232   4     -36.014200000000002      9.5289800000000007                 15.6188
   233   4     -34.447299999999998                 9.35806      16.576799999999999
   234   7                -34.4983      8.2144999999999992                 14.8406
   235   2                 -35.012      6.9775900000000002                 14.5693
   236   7     -13.072800000000001      6.2348400000000002                 13.6662
   237   7     -35.899999999999999      6.6118499999999996      15.551600000000001
   238   2     -35.886200000000002      7.5732299999999997      16.642800000000001
   239   4     -35.284599999999998      7.0068400000000004                 17.3843
   240   4     -36.925800000000002                 7.55959      16.885300000000001
   241   2     -34.937600000000003                -8.28688      7.0555899999999996
   242   4                -35.7211     -7.6291000000000002                  7.4173
   243   4     -35.235199999999999     -9.3117599999999996                 6.90327
   244   7                -33.9054     -8.2304999999999993      8.0808499999999999
   245   2     -32.645299999999999     -8.3881999999999994      7.4968000000000004
   246   7                -31.6554     -8.5708000000000002      8.0945099999999996
   247   7     -32.723700000000001     -8.2623999999999995      6.1542399999999997
   248   2     -34.116599999999998                -7.78735      5.8109400000000004
   249   4     -34.358899999999998     -8.4703599999999994      4.9746699999999997
   250   4     -34.107300000000002     -6.7275299999999998      5.5836699999999997
   251   2     -24.681100000000001     -7.0264100000000003      9.6137899999999998
   252   4     -23.960999999999999     -6.2541200000000003      9.9647100000000002
   253   4     -24.181899999999999     -7.8125099999999996                 9.01633
   254   7     -25.626899999999999     -6.3627000000000002      8.6957699999999996
   255   2     -26.799900000000001     -6.2666599999999999      9.3135499999999993
   256   7     -27.815300000000001     -5.8416600000000001                 8.82165
   257   7     -26.781700000000001     -6.8527399999999998                 10.5517
   258   2     -25.659300000000002     -7.5934999999999997      10.716699999999999
   259   4     -25.886600000000001     -8.7553800000000006                 10.4321
   260   4     -25.265599999999999     -7.5288399999999998                 11.7767
   261   2     -25.909800000000001      9.3335500000000007                 17.6447
   262   4                -25.2559      8.7278400000000005                  16.994
   263   4     -26.934799999999999                 9.23203      17.382100000000001
   264   7     -25.552099999999999      10.784599999999999      17.579699999999999
   265   2                -24.8066                 11.1387      18.721599999999999
   266   7                -24.1599                 12.1722      18.707000000000001
   267   7     -24.860199999999999                 10.2072                 19.6586
   268   2                -25.6447      9.1235099999999996      19.090800000000002
   269   4     -26.591699999999999      8.9307700000000008                 19.5975
   270   4     -25.083200000000001      8.1762700000000006      19.226600000000001
   271   2                -30.7117     -7.2592299999999996      11.589499999999999
   272   4     -30.330500000000001     -7.2384000000000004                 10.5862
   273   4     -31.746099999999998     -6.9443299999999999                 11.6835
   274   7                -29.9071     -6.2698999999999998      12.308199999999999
   275   2     -28.863299999999999     -6.8911199999999999                 12.8825
   276   7     -28.030799999999999     -6.4378200000000003                  13.634
   277   7                -28.9953     -8.2859200000000008      12.779500000000001
   278   2     -30.408799999999999                -8.54223                  12.343
   279   4                -31.0123     -8.6869899999999998                 13.2502
   280   4     -30.402999999999999     -9.4512999999999998      11.744899999999999
   281   2     -35.423999999999999      11.004099999999999                 10.7311
   282   4     -36.153399999999998                  10.378      11.293200000000001
   283   4     -35.593499999999999      12.084300000000001                 10.8255
   284   7     -35.622100000000003     -10.910299999999999      9.3259699999999999
   285   2     -34.530700000000003     -11.549799999999999      8.8070500000000003
   286   7     -34.444499999999998     -11.844799999999999      7.6495800000000003
   287   7     -33.627299999999998                -11.7005      9.7069899999999993
   288   2     -33.909799999999997                 10.7342                 10.8847
   289   4     -33.321399999999997      11.631399999999999                  10.606
   290   4     -33.477899999999998      10.305400000000001                 11.8041
   291   2     -26.422999999999998      6.2883399999999998      5.4594500000000004
   292   4     -27.139099999999999      6.4379299999999997      6.2287100000000004
   293   4     -26.180199999999999      7.1819899999999999      4.8578900000000003
   294   7     -27.094200000000001      5.3296299999999999                 4.57925
   295   2     -26.398199999999999                 4.25007      4.5088999999999997
   296   7     -26.710799999999999      3.2518899999999999      3.7973599999999998
   297   7     -25.350000000000001      4.2133900000000004      5.3379899999999996
   298   2     -25.257000000000001      5.4430500000000004      6.0632700000000002
   299   4     -24.263300000000001                 5.80044      5.9320700000000004
   300   4     -25.497800000000002      5.2752600000000003      7.1467099999999997
   301   2     -25.545400000000001      10.674899999999999      6.0269899999999996
   302   4     -26.111899999999999                 11.4842      5.6206199999999997
   303   4     -25.121700000000001      10.126300000000001      5.2182500000000003
   304   7     -26.517099999999999      9.6787600000000005                 6.59178
   305   2                -26.4437      9.6587899999999998      7.9338800000000003
   306   7                -27.1355      8.9299199999999992      8.6298700000000004
   307   7     -25.523499999999999                 10.5068      8.3807500000000008
   308   2                -24.7029                 10.9923      7.3085800000000001
   309   4     -23.769200000000001      10.493600000000001      7.3793100000000003
   310   4     -24.575800000000001      12.071099999999999      7.5019600000000004
   311   2     -20.793800000000001     -9.8930399999999992      9.6393199999999997
   312   4                -19.8568     -9.5595999999999997      9.1683400000000006
   313   4     -21.416799999999999     -10.389699999999999      8.8620000000000001
   314   7     -21.541499999999999     -8.6507100000000001      10.020799999999999
   315   2     -21.500299999999999     -8.4881399999999996                 11.3551
   316   7     -21.854700000000001     -7.4565700000000001                 11.9871
   317   7     -20.980799999999999     -9.6078100000000006                 12.0678
   318   2     -20.668399999999998     -10.593500000000001      11.012499999999999
   319   4                -21.3689     -11.363899999999999                 10.9718
   320   4     -19.742999999999999     -10.995799999999999                 11.2287
   321   2     -18.735900000000001      4.8084199999999999     -4.5078699999999996
   322   4     -18.642900000000001      5.2266899999999996     -5.4901999999999997
   323   4     -18.431100000000001      5.3392600000000003     -3.6465000000000001
   324   7     -39.696899999999999      3.4538099999999998     -4.4487899999999998
   325   2     -40.531199999999998      2.5463800000000001     -4.8548799999999996
   326   7     -40.270099999999999      1.4589000000000001     -5.3336199999999998
   327   7                -41.8005      2.9879099999999998     -4.8243999999999998
   328   2     -41.744799999999998      4.3430200000000001     -4.3273799999999998
   329   4     -42.046799999999998      4.3687199999999997     -3.3076599999999998
   330   4     -42.444899999999997      4.9768299999999996     -4.8977899999999996
   331   2                -22.6279      1.6756899999999999      14.440300000000001
   332   4     -23.476900000000001                 1.49963      13.758699999999999
   333   4     -22.311199999999999      2.6655600000000002                 14.2898
   334   7     -21.415600000000001     0.89983500000000005                 14.0671
   335   2                 -21.134     0.12574099999999999                 15.1638
   336   7     -20.189699999999998    -0.69858500000000001      15.133900000000001
   337   7                -21.7836     0.46230700000000002      16.311800000000002
   338   2                -22.8551                  1.4359                 15.9038
   339   4     -22.780200000000001      2.3542900000000002      16.476700000000001
   340   4     -23.770700000000001     0.95060199999999995      16.095300000000002
   341   2     -28.883299999999998     0.91388100000000005                 11.7355
   342   4                 -28.477      1.8362000000000001                 11.2415
   343   4     -28.453399999999998  -0.0057783899999999996                 11.3421
   344   7     -30.386399999999998     0.91095599999999999                 11.6381
   345   2     -30.947500000000002                 1.07128                 12.8941
   346   7     -32.141300000000001                 1.08741      12.989100000000001
   347   7                -29.9758      1.2876000000000001      13.838100000000001
   348   2     -28.652699999999999      1.0616099999999999      13.260999999999999
   349   4                -28.3063     0.13323499999999999      13.670999999999999
   350   4     -28.087199999999999                 1.93286                 13.4223
   351   2     -23.196200000000001     -9.2826500000000003     0.55248399999999998
   352   4                -23.1828     -8.2263199999999994     0.23801800000000001
   353   4     -23.174199999999999     -10.064399999999999    -0.21240000000000001
   354   7     -24.584199999999999     -9.4698200000000003      1.0687800000000001
   355   2                -24.5366     -9.5867400000000007      2.4316900000000001
   356   7                -25.4847     -9.5965199999999999                 3.16967
   357   7     -23.300999999999998     -9.7027400000000004      2.8486199999999999
   358   2                -22.2685     -9.6122999999999994      1.7821800000000001
   359   4                -21.7959                -10.5954                 1.67256