(written by ASE)

888 atoms
9 atom types

0.0      21.553999999999998  xlo xhi
0.0      21.553999999999998  ylo yhi
0.0                  21.544  zlo zhi

Atoms # atomic

     1   2     -34.153700000000001     -12.724299999999999      18.777699999999999
     2   4     -34.309899999999999                -13.6288      19.261500000000002
     3   4     -34.651800000000001     -12.784800000000001      17.838699999999999
     4   7     -32.760300000000001                -12.6839      18.389399999999998
     5   2     -32.105600000000003                -12.0185                 19.3447
     6   7                -30.8781     -11.936500000000001      19.429200000000002
     7   7     -33.006100000000004     -11.390000000000001      20.204599999999999
     8   2     -34.333799999999997                -11.5204      19.651299999999999
     9   4     -34.496699999999997                 -10.571                 19.1175
    10   4     -35.054000000000002     -11.603400000000001                 20.4635
    11   2     -25.203499999999998     -6.0754400000000004      9.5507000000000009
    12   4     -24.309100000000001     -6.5852599999999999                 10.0136
    13   4     -25.225100000000001                 16.5731      9.9426299999999994
    14   7     -26.467600000000001     -6.7584600000000004      10.031700000000001
    15   2     -27.280100000000001     -6.8857799999999996      8.9484200000000005
    16   7     -28.392800000000001     -7.3606499999999997      8.9962700000000009
    17   7     -26.797799999999999     -6.3798199999999996      7.8392799999999996
    18   2     -25.373799999999999     -6.1047099999999999                 7.98691
    19   4                -25.1404     -5.0846299999999998      7.6179100000000002
    20   4     -24.794899999999998                -6.86775      7.4510100000000001
    21   2     -26.310400000000001     -3.3501599999999998                 4.71957
    22   4     -25.625599999999999     -3.3986499999999999                 3.81839
    23   4                -26.4665     -4.3734799999999998      5.0338599999999998
    24   7     -27.593599999999999     -2.6588099999999999      4.3071599999999997
    25   2                -27.7151     -1.4906600000000001      5.0057099999999997
    26   7     -28.565799999999999    -0.62624000000000002      4.8561100000000001
    27   7     -26.814399999999999     -1.4138500000000001      5.9566400000000002
    28   2     -25.822299999999998     -2.5030199999999998      5.8626899999999997
    29   4     -25.833300000000001     -3.0545900000000001      6.8231200000000003
    30   4                -24.8613     -2.0468000000000002      5.6612499999999999
    31   2                -15.6211      1.2093100000000001    -0.87589499999999998
    32   4     -16.569500000000001     0.69944799999999996    -0.61794899999999997
    33   4                -15.2202      1.7876799999999999   -0.035960899999999997
    34   7     -15.844200000000001      2.1694800000000001     -1.9012899999999999
    35   2     -14.981400000000001      1.9649000000000001                -2.93899
    36   7                -14.9224      2.6412300000000002                -3.95126
    37   7                -14.1647     0.93414200000000003     -2.6997800000000001
    38   2     -14.558999999999999     0.23353399999999999                -1.39198
    39   4                -13.6454                0.160082    -0.78911799999999999
    40   4     -14.944100000000001    -0.73762799999999995                -1.70791
    41   2     -23.414400000000001     -6.0689200000000003      17.768000000000001
    42   4     -23.231400000000001     -5.2145299999999999                 17.1873
    43   4     -23.017800000000001     -7.0306699999999998                 17.3522
    44   7                -24.8691     -6.1524599999999996      17.840399999999999
    45   2     -25.284600000000001     -6.5307599999999999                 19.0943
    46   7     -26.482199999999999     -6.8272500000000003      19.323699999999999
    47   7     -24.223400000000002     -6.4630999999999998      19.934899999999999
    48   2                -23.0397     -5.9970800000000004      19.229600000000001
    49   4     -22.242000000000001     -6.6578999999999997                 19.4833
    50   4                -22.7545     -5.0648600000000004                 19.7407
    51   2     -17.769300000000001                 10.9991                 13.1683
    52   4     -17.735600000000002      10.447100000000001      14.151199999999999
    53   4     -18.531500000000001      11.718400000000001      13.115500000000001
    54   7                -18.0702     -11.513500000000001      12.099399999999999
    55   2     -16.988099999999999                -11.6592                 11.2811
    56   7                -16.9376                -12.4735                  10.426
    57   7                -15.9322                 10.6206      11.700200000000001
    58   2     -16.364799999999999      11.547700000000001      12.754200000000001
    59   4                -16.1873                 12.5929      12.374000000000001
    60   4                 -15.631                 11.3934      13.494300000000001
    61   2     -19.056000000000001     -5.4550999999999998      17.497900000000001
    62   4     -19.751899999999999     -6.1251899999999999                 16.9284
    63   4     -18.209199999999999                -5.95913                  17.855
    64   7     -19.923999999999999     -5.0054600000000002                 18.7272
    65   2     -20.139399999999998     -3.6737199999999999                 18.6389
    66   7     -20.674099999999999     -3.0622600000000002      19.516300000000001
    67   7                -19.7592                -3.18275      17.464700000000001
    68   2     -18.808800000000002     -4.1336000000000004                 16.8047
    69   4     -17.815100000000001     -3.7864800000000001      16.921199999999999
    70   4     -19.177299999999999     -4.2754799999999999                 15.7522
    71   2     -29.649999999999999      6.7062999999999997     -1.2268300000000001
    72   4                -29.2254      5.7993800000000002    -0.80894900000000003
    73   4     -30.192399999999999      7.2554400000000001    -0.41623300000000002
    74   7     -30.799700000000001      6.2633299999999998     -2.1442999999999999
    75   2     -30.410599999999999     -15.233700000000001     -3.4105400000000001
    76   7     -31.154699999999998     -15.491899999999999                -4.33948
    77   7     -29.091000000000001      6.6912599999999998     -3.5058199999999999
    78   2     -28.728200000000001      7.3525900000000002     -2.2455500000000002
    79   4     -28.870899999999999      8.3734800000000007     -2.4557000000000002
    80   4     -27.677499999999998      7.1146500000000001     -2.0074800000000002
    81   2     -30.510400000000001                -13.2736      8.1943699999999993
    82   4     -29.434200000000001                -13.2531      8.0517400000000006
    83   4     -31.068000000000001     -13.821400000000001                 7.41045
    84   7     -30.986799999999999                -11.8279      8.2131699999999999
    85   2                 -30.727     -11.422499999999999      9.5007300000000008
    86   7     -30.699999999999999                -10.2697      9.8670500000000008
    87   7     -30.412199999999999                -12.4373                 10.2973
    88   2                -30.7669                -13.6782      9.6404300000000003
    89   4     -31.761800000000001                -13.9199      9.8849499999999999
    90   4     -29.980399999999999     -14.391999999999999      10.030799999999999
    91   2     -20.491199999999999     -8.3309099999999994                 22.0669
    92   4                -20.8855     -8.7804099999999998      21.156600000000001
    93   4     -21.059899999999999     -8.5977999999999994      22.953499999999998
    94   7     -20.718800000000002                -6.86205      21.950099999999999
    95   2     -19.668900000000001     -6.1020200000000004      22.271799999999999
    96   7     -19.746099999999998                -4.90646      22.438099999999999
    97   7     -18.576799999999999     -6.9361899999999999      22.367799999999999
    98   2     -18.948699999999999     -8.3545499999999997                 22.1495
    99   4                -18.4496     -8.8744499999999995                 22.9314
   100   4     -18.466899999999999     -8.7181999999999995                  21.192
   101   2     -19.952200000000001     -4.6335100000000002      9.0676400000000008
   102   4     -19.159099999999999     -5.2993199999999998      9.4072099999999992
   103   4     -20.453299999999999     -5.0981800000000002      8.2154600000000002
   104   7     -19.618099999999998     -3.2580499999999999      8.7625200000000003
   105   2     -20.664200000000001     -2.4561899999999999      9.0707799999999992
   106   7     -20.739999999999998                -1.27677      8.7531400000000001
   107   7     -21.473600000000001     -3.1336900000000001      9.8990799999999997
   108   2     -21.008099999999999     -4.4086800000000004      10.236499999999999
   109   4     -21.864899999999999                -5.09762      10.148099999999999
   110   4     -20.667100000000001     -4.3500699999999997      11.272500000000001
   111   2     -25.932300000000001      6.9291999999999998     -5.3912899999999997
   112   4     -25.876799999999999      7.4998500000000003      15.225199999999999
   113   4     -26.587199999999999                 6.06555     -5.3100699999999996
   114   7     -26.331800000000001      7.8082399999999996     -4.3183800000000003
   115   2     -25.216000000000001      8.2934800000000006     -3.6608900000000002
   116   7     -25.204699999999999      9.3057800000000004                -3.00251
   117   7     -24.074200000000001                 7.48306     -3.9332699999999998
   118   2     -24.520099999999999                 6.48238     -4.9318999999999997
   119   4     -24.414999999999999      5.5950600000000001     -4.3160400000000001
   120   4                -23.7455                 6.56365      15.805199999999999
   121   2     -37.835799999999999                -14.4269      19.586500000000001
   122   4                -37.4863                -15.4114      19.935500000000001
   123   4     -37.834400000000002                -14.2583      18.506499999999999
   124   7                -36.9649     -13.381600000000001      20.098600000000001
   125   2     -37.690100000000001     -12.526199999999999                 20.9208
   126   7     -37.188699999999997     -11.555300000000001      21.492000000000001
   127   7     -38.949100000000001     -12.914999999999999                 20.9818
   128   2     -39.223999999999997     -14.058199999999999      20.088000000000001
   129   4     -39.925400000000003                -13.5854      19.398800000000001
   130   4     -39.716799999999999     -14.863300000000001      20.657299999999999
   131   2     -16.285299999999999     -8.8170999999999999                 16.8156
   132   4     -17.150300000000001     -8.1188400000000005      16.928699999999999
   133   4                -15.7121     -8.3786100000000001      16.022099999999998
   134   7                -16.7864                -10.0969      16.317599999999999
   135   2                -16.5517                -11.1028      17.174700000000001
   136   7     -16.916599999999999                -12.2561      16.984000000000002
   137   7     -15.827999999999999     -10.661199999999999      18.241800000000001
   138   2     -15.446099999999999     -9.2683800000000005      18.081099999999999
   139   4                -14.3177     -9.1873299999999993      17.870799999999999
   140   4                -15.7279     -8.8261800000000008      19.088100000000001
   141   2     -8.5245800000000003     -4.3408199999999999      6.0254200000000004
   142   4     -7.5769500000000001     -4.3455700000000004      5.4595799999999999
   143   4     -30.815799999999999     -3.6911999999999998      5.5473699999999999
   144   7                -29.8523     -3.8686400000000001      7.3953800000000003
   145   2     -30.294499999999999     -4.7978899999999998                 8.26023
   146   7                -30.3047     -4.7841399999999998      9.4924599999999995
   147   7     -8.9788999999999994     -5.9202500000000002      7.5743799999999997
   148   2     -9.0738000000000003     -5.7995400000000004      6.1363000000000003
   149   4                -10.1675                -5.82681      5.9634099999999997
   150   4     -8.4006900000000009     -6.4876199999999997      5.6157500000000002
   151   2                -27.2075                -10.8756                 10.3604
   152   4                -28.0671     -10.864000000000001                 11.0579
   153   4                -27.1142     -9.8952399999999994      9.8260199999999998
   154   7     -27.429400000000001     -11.907400000000001      9.3952299999999997
   155   2     -26.566299999999998     -12.934799999999999      9.5797000000000008
   156   7     -26.574100000000001                -13.9712      8.9415999999999993
   157   7     -25.596399999999999     -12.559699999999999                 10.4918
   158   2     -25.901800000000001                -11.2829                 11.1196
   159   4     -25.059699999999999                 10.9132      10.968299999999999
   160   4                -26.0822                 10.0801                 12.2219
   161   2     -37.629300000000001                -4.67516      19.974399999999999
   162   4     -36.796500000000002     -4.9645700000000001      19.276199999999999
   163   4     -38.391599999999997     -5.4978499999999997                 20.2287
   164   7     -38.443600000000004     -3.7344200000000001                 19.2911
   165   2                -38.7423     -2.6285500000000002      20.008299999999998
   166   7     -17.904299999999999                -1.71926      19.601500000000001
   167   7     -38.118200000000002                -2.68655      21.190000000000001
   168   2     -37.227400000000003     -3.8776199999999998      21.246500000000001
   169   4     -37.392800000000001     -4.3726099999999999                 22.2182
   170   4     -36.167000000000002     -3.5377399999999999      21.222899999999999
   171   2                  -12.98                -5.85222                 15.4962
   172   4                -12.8935     -6.6826600000000003      16.210000000000001
   173   4     -12.204700000000001     -5.9194000000000004      14.710599999999999
   174   7                -12.7567     -4.6391999999999998      16.258600000000001
   175   2     -13.920400000000001     -4.2197800000000001                 16.7745
   176   7                -14.0336     -3.4741499999999998      17.732800000000001
   177   7                -14.9901     -4.7486699999999997      16.143899999999999
   178   2                -14.4117     -5.6625300000000003                 15.0296
   179   4     -14.555300000000001     -5.1457100000000002                 14.0343
   180   4     -14.944699999999999                -6.63734      15.107200000000001
   181   2                -21.9923     -11.716200000000001      2.9049999999999998
   182   4     -22.449400000000001      9.1535799999999998      2.1749900000000002
   183   4                -22.6035     -10.807700000000001      2.9362200000000001
   184   7     -20.752700000000001      10.306900000000001      2.1771400000000001
   185   2     -19.752099999999999                -11.1953      3.0522100000000001
   186   7     -18.602900000000002                 -10.791      2.8635600000000001
   187   7     -20.165700000000001                -11.5746      4.2683499999999999
   188   2     -21.455300000000001     -12.255800000000001      4.2538900000000002
   189   4     -22.003900000000002                -11.9436                 5.13748
   190   4                -21.2456     -13.301500000000001      25.922499999999999
   191   2     -24.842700000000001    -0.82825000000000004      19.076599999999999
   192   4     -24.206600000000002    -0.95503300000000002                 20.0015
   193   4     -25.236899999999999                0.196717      18.765999999999998
   194   7     -26.109400000000001                -1.57222      19.234999999999999
   195   2     -26.087499999999999     -2.7225700000000002      18.512899999999998
   196   7                -27.0444     -3.4881700000000002                 18.5886
   197   7     -25.074999999999999     -2.8306800000000001      17.744900000000001
   198   2     -24.290900000000001     -1.5965199999999999      17.842400000000001
   199   4                -24.5885                -1.04548      16.967300000000002
   200   4     -23.203199999999999     -1.8533900000000001      17.840599999999998
   201   2     -23.197399999999998     -3.4499599999999999      23.338200000000001
   202   4                -22.4588     -3.7960799999999999                 24.0855
   203   4     -23.432600000000001     -2.4073199999999999                 23.5367
   204   7     -24.462900000000001     -4.1855500000000001      23.347000000000001
   205   2                -24.9695     -4.0636799999999997                 22.1068
   206   7     -26.109100000000002     -4.3545299999999996                 21.7546
   207   7     -24.154800000000002     -3.5822600000000002    -0.33715699999999998
   208   2     -22.823699999999999     -3.5070399999999999     0.29369600000000001
   209   4     -22.478300000000001                -2.53464               -0.010945
   210   4                -22.1953     -4.3408499999999997   -0.027201599999999999
   211   2     -10.176399999999999     -8.4153800000000007      18.751799999999999
   212   4                -10.4626     -9.4205000000000005      18.368400000000001
   213   4     -9.2258999999999993     -8.5145999999999997      19.271699999999999
   214   7                -11.2773     -7.9225000000000003      19.571999999999999
   215   2                -11.6449     -6.6494499999999999      19.173200000000001
   216   7                -12.5669     -6.0636799999999997      19.630800000000001
   217   7     -10.886900000000001     -6.1568399999999999     -3.3974500000000001
   218   2     -10.161199999999999     -7.3640699999999999     -3.8782199999999998
   219   4                -30.7349     -7.0736400000000001     -4.1895800000000003
   220   4                -10.8619                -7.65747     -4.6950900000000004
   221   2     -22.376300000000001                 11.8294                 13.3597
   222   4                -22.6022                 12.6739      12.627599999999999
   223   4     -21.278500000000001                 11.5845                   13.44
   224   7     -23.219100000000001                  10.661                 13.0184
   225   2     -23.678100000000001      9.9958100000000005                 14.1351
   226   7     -24.250599999999999      8.9347300000000001      14.041600000000001
   227   7     -23.396799999999999      10.739800000000001                 15.2034
   228   2                -22.9573      12.069699999999999      14.805199999999999
   229   4     -22.144500000000001      12.441700000000001      15.421900000000001
   230   4     -23.872599999999998      12.695499999999999      14.818899999999999
   231   2     -35.664299999999997      7.4672999999999998                 14.6571
   232   4     -34.889600000000002      8.1836400000000005                 14.9536
   233   4     -35.572299999999998      6.6210199999999997                 15.3409
   234   7     -35.365499999999997                  6.9333                 13.3329
   235   2     -36.587800000000001      6.7408999999999999      12.684699999999999
   236   7     -15.088800000000001      6.0998700000000001      11.662599999999999
   237   7     -37.663600000000002      7.3653500000000003                 13.3819
   238   2     -36.941600000000001      8.1945399999999999      14.379799999999999
   239   4     -37.539700000000003      8.2774999999999999      15.282299999999999
   240   4     -36.917700000000004      9.2035499999999999                 13.9003
   241   2     -32.381999999999998     -11.125500000000001      5.2646499999999996
   242   4     -32.771000000000001     -11.251200000000001      4.2587400000000004
   243   4     -32.169899999999998     -12.109299999999999      5.7213599999999998
   244   7     -33.314300000000003                -10.3439      6.0155500000000002
   245   2                -32.6633     -9.2784700000000004      6.5791000000000004
   246   7     -33.194800000000001     -8.4406599999999994      7.2794699999999999
   247   7     -31.366099999999999     -9.3477399999999999      6.2695499999999997
   248   2                -31.0502                -10.3485                 5.37751
   249   4     -30.206800000000001                -10.9163      5.7935100000000004
   250   4     -30.670100000000001     -9.8576700000000006      4.4777199999999997
   251   2                 -24.395                -5.09335                 13.8874
   252   4     -24.552199999999999     -4.2905199999999999      14.593500000000001
   253   4     -25.400300000000001     -5.5051300000000003                 13.7212
   254   7                -23.5261     -6.0345199999999997                 14.7142
   255   2                -22.2456     -5.7168700000000001      14.412699999999999
   256   7                -21.2041     -6.0452399999999997                 15.0143
   257   7     -22.187200000000001     -4.9511500000000002      13.319100000000001
   258   2     -23.467700000000001     -4.8550199999999997      12.682600000000001
   259   4     -23.549299999999999     -5.6677799999999996      11.874499999999999
   260   4     -23.571300000000001                 -3.7502                 12.3893
   261   2     -23.559899999999999                 10.9833                 21.4544
   262   4     -23.203900000000001                 11.6874      22.230399999999999
   263   4     -23.568899999999999      10.000400000000001                 21.9147
   264   7     -22.763400000000001                 11.1234                 20.2149
   265   2     -23.413499999999999      11.841699999999999      19.281400000000001
   266   7     -22.880299999999998                 12.1265      18.224499999999999
   267   7     -24.567399999999999      12.145099999999999                 19.7606
   268   2                -24.9099                 11.4399      20.971399999999999
   269   4     -25.653700000000001                 10.6945      20.784400000000002
   270   4     -25.336400000000001      12.231999999999999      21.625499999999999
   271   2     -29.511700000000001     -8.3134899999999998                 13.1548
   272   4     -30.335899999999999     -8.6541800000000002      12.494199999999999
   273   4                -28.9863     -9.1786300000000001      13.513400000000001
   274   7                -30.0701     -7.5673700000000004                 14.2477
   275   2     -29.736000000000001     -6.2912600000000003                 14.1084
   276   7     -30.065999999999999                -5.40381      14.885999999999999
   277   7     -28.986599999999999     -6.0744899999999999                 13.0031
   278   2     -28.539400000000001     -7.3216000000000001      12.449400000000001
   279   4                 -27.471     -7.4112600000000004      12.794499999999999
   280   4                -28.6692     -7.2963699999999996      11.379099999999999
   281   2     -34.701900000000002      9.9531299999999998                  10.138
   282   4     -33.877000000000002      10.626200000000001                 10.5227
   283   4     -35.264200000000002      9.5416000000000007                 10.9717
   284   7     -33.942599999999999                -12.6601      9.5116200000000006
   285   2     -34.376300000000001                -12.8527      8.2068399999999997
   286   7     -33.854500000000002     -13.675000000000001      7.4843000000000002
   287   7     -35.342399999999998     -12.027100000000001      7.8765499999999999
   288   2     -35.574199999999998                 10.5474      9.0262499999999992
   289   4     -36.652200000000001                 10.6517      9.1678899999999999
   290   4     -35.009500000000003                 11.5398      8.8255800000000004
   291   2     -25.467700000000001      5.6345799999999997      6.5284500000000003
   292   4     -25.719799999999999      5.6515500000000003      7.5443600000000002
   293   4     -25.472200000000001      6.5593899999999996      5.9797799999999999
   294   7     -26.503699999999998      4.8025700000000002      5.9100900000000003
   295   2     -26.028199999999998      3.5573600000000001      5.6725000000000003
   296   7     -26.614100000000001      2.5506199999999999      5.2854200000000002
   297   7     -24.720600000000001                  3.5625                 5.90639
   298   2                -24.2057      4.8263800000000003      6.2839200000000002
   299   4                -23.5581      5.2201700000000004                 5.56243
   300   4     -23.564900000000002      4.6201800000000004      7.2124100000000002
   301   2     -26.244700000000002      9.4999800000000008      5.6811600000000002
   302   4     -25.910799999999998                 9.19801      4.6596399999999996
   303   4     -26.526700000000002                 8.57151      6.2453200000000004
   304   7     -27.439299999999999                 10.3247      5.7390499999999998
   305   2     -27.363900000000001                 11.2357      6.7133099999999999
   306   7                -28.3643                 11.8771      7.0996899999999998
   307   7     -26.109000000000002                 11.3202      7.1773999999999996
   308   2     -25.207899999999999                 10.3512                 6.38476
   309   4                -24.7257      9.7472899999999996      7.1867999999999999
   310   4                -24.4788                 10.8605      5.7226699999999999
   311   2                -20.6934     -10.233000000000001      9.3342399999999994
   312   4                -20.5975                -11.2043      9.8885199999999998
   313   4     -19.831199999999999     -9.8397900000000007      8.7146100000000004
   314   7     -20.827100000000002     -9.1623699999999992      10.430300000000001
   315   2     -21.927099999999999     -8.4322599999999994      10.224299999999999
   316   7                -22.3109     -7.3709300000000004      10.658200000000001
   317   7     -22.816600000000001     -9.1276600000000006      9.4376499999999997
   318   2     -22.110800000000001                -10.1996      8.7582699999999996
   319   4                -22.0305                 -10.058      7.6916900000000004
   320   4     -22.570399999999999                -11.2172      8.9916900000000002
   321   2     -17.797699999999999                  4.6147     -5.0724799999999997
   322   4     -18.514099999999999                 5.30016     -5.5629600000000003
   323   4     -16.725300000000001      4.8115899999999998     -5.3330700000000002
   324   7     -39.759300000000003      3.2709999999999999                -5.45566
   325   2                -39.7532      2.4793099999999999     -4.3534199999999998
   326   7     -39.773099999999999                 1.26292     -4.2621200000000004
   327   7     -39.585099999999997      3.2025399999999999                -3.24586
   328   2                -39.5379      4.6130300000000002     -3.5806800000000001
   329   4     -38.704700000000003      5.0275600000000003     -3.0297900000000002
   330   4     -40.529299999999999                 4.99404                -3.31385
   331   2     -21.727799999999998      3.1480600000000001      15.268700000000001
   332   4     -21.544699999999999      3.3411400000000002      14.194800000000001
   333   4     -21.444500000000001      4.1299000000000001      15.726000000000001
   334   7     -20.986899999999999      2.0908899999999999      15.841799999999999
   335   2     -21.822299999999998      1.0084299999999999      16.136399999999998
   336   7     -21.332000000000001              -0.0200667      16.547499999999999
   337   7     -23.088999999999999                 1.28871      15.967599999999999
   338   2     -23.206399999999999      2.6998799999999998      15.339399999999999
   339   4     -23.909099999999999      3.2865000000000002      15.962199999999999
   340   4                -23.6416      2.5600900000000002      14.352399999999999
   341   2     -29.988399999999999      2.1361599999999998                 12.4832
   342   4     -29.578600000000002      2.2193200000000002                 11.4069
   343   4     -29.408100000000001                 1.39886                 13.0342
   344   7     -31.384899999999998                  1.7035      12.502700000000001
   345   2     -32.035200000000003      2.3834200000000001      13.432499999999999
   346   7     -33.202300000000001                 2.12622                 13.6915
   347   7     -31.308700000000002                 3.31894                 14.0512
   348   2     -30.060500000000001      3.4604300000000001      13.226699999999999
   349   4     -29.181100000000001      3.7004800000000002                 13.8575
   350   4                -30.2468      4.3512700000000004                 12.5299
   351   2     -25.052399999999999     -7.0246700000000004      3.3658700000000001
   352   4                -25.6343     -6.2731599999999998      2.8269899999999999
   353   4                -24.0107                -6.71976                 3.42801
   354   7     -25.005500000000001     -8.1719899999999992      2.4102299999999999
   355   2     -25.616199999999999     -9.2174800000000001      3.0204300000000002
   356   7     -25.692900000000002     -10.329700000000001                 2.52698
   357   7                -26.1355     -8.8755900000000008      4.1948100000000004
   358   2     -25.678699999999999     -7.5717299999999996      4.5933999999999999
   359   4     -25.116700000000002     -7.6997900000000001      5.5272199999999998