(written by ASE)

915 atoms
9 atom types

0.0      21.712770568302616  xlo xhi
0.0      21.712770568302616  ylo yhi
0.0      21.712770568302616  zlo zhi

Atoms # atomic

     1   2      15.018000000000001      6.3239599999999996      5.2057500000000001
     2   2      14.097099999999999      5.1839899999999997      5.5920199999999998
     3   7      14.970700000000001                 3.99559                 5.36782
     4   2      16.010999999999999      4.3344300000000002      4.6114199999999999
     5   7      16.962800000000001      3.6339999999999999      4.3012300000000003
     6   7                 15.9053      5.6421400000000004      4.2272600000000002
     7   4                 15.6503                 6.70451      6.0552299999999999
     8   4                  14.609      7.2443200000000001      4.7520899999999999
     9   4                 13.2559      5.2037800000000001      4.9162299999999997
    10   4      13.815899999999999      5.0893600000000001      6.6619200000000003
    11   2      3.6868099999999999                 12.3376                  23.843
    12   2      4.4483199999999998                 13.2058      24.799199999999999
    13   7      4.0139800000000001                  12.573      26.068200000000001
    14   2      3.7644500000000001      11.266500000000001      25.815899999999999
    15   7      3.6443099999999999      10.392899999999999      26.646799999999999
    16   7      3.7249400000000001                 10.9977      24.437100000000001
    17   4                 4.11172                 12.3163      22.821899999999999
    18   4      2.6268199999999999                 12.6899                 23.8186
    19   4      4.1210100000000001      14.207700000000001                 24.7468
    20   4                 5.54739      13.232100000000001      24.643899999999999
    21   2      2.2930700000000002      2.9291200000000002                 15.5875
    22   2      3.5482399999999998                  2.1147                 15.4221
    23   7      3.9041399999999999      2.4354300000000002      14.029500000000001
    24   2      2.8546499999999999      2.9940500000000001                  13.387
    25   7      2.8048600000000001      3.1080700000000001                 12.1776
    26   7      1.8539600000000001      3.2592599999999998                 14.2584
    27   4      2.4610099999999999                 3.89845      16.028199999999998
    28   4      1.4433100000000001      2.5133399999999999                 16.1282
    29   4      3.5110700000000001                 1.02634                 15.4697
    30   4      4.4989499999999998      2.4407899999999998      16.037099999999999
    31   2                 11.1213    -0.77065799999999995     -1.3227500000000001
    32   2                 10.0434  -0.0035000299999999999     -2.1518600000000001
    33   7                 10.5253                 1.39943     -2.0997699999999999
    34   2      11.708299999999999                  1.4717     -1.4720599999999999
    35   7                 12.3935      2.4460099999999998                -1.38974
    36   7      12.069800000000001     0.27515099999999998     -1.0315000000000001
    37   4                 11.6836     -1.4458500000000001     -2.0021399999999998
    38   4      10.694900000000001     -1.2718100000000001    -0.46204400000000001
    39   4      9.0901700000000005   -0.071708400000000005                -1.60754
    40   4      9.9103399999999997    -0.26058700000000001     -3.2076899999999999
    41   2      6.6822699999999999      5.6318999999999999                 15.3634
    42   2      6.6509799999999997                 6.79467                 14.3451
    43   7      5.3195199999999998                 6.91493      13.867000000000001
    44   2      4.5995499999999998      5.8517900000000003                 14.4207
    45   7      3.4643999999999999      5.6681800000000004      14.049799999999999
    46   7      5.2298600000000004      5.1700600000000003                 15.4064
    47   4      6.9940199999999999      5.9654600000000002      16.372800000000002
    48   4      7.2813400000000001      4.7823399999999996                 15.1593
    49   4                 7.37141      6.6069899999999997                 13.5543
    50   4      6.9285100000000002                 7.77447                 14.8184
    51   2      10.786199999999999      3.8666800000000001      8.0691100000000002
    52   2      11.110300000000001      3.7981199999999999      6.6152899999999999
    53   7      9.8895800000000005                 3.22925      6.0460000000000003
    54   2      9.1157299999999992      2.6242999999999999      6.9583399999999997
    55   7      8.2535500000000006                 1.73458      6.7768600000000001
    56   7      9.5269899999999996      3.0511699999999999      8.1583900000000007
    57   4      10.432700000000001      4.8675199999999998      8.3676300000000001
    58   4                 11.4863      3.4597600000000002      8.7808200000000003
    59   4                 12.0105      3.1353499999999999      6.3103499999999997
    60   4      11.233599999999999      4.8009300000000001                 6.13483
    61   2                -12.2011     -8.4720099999999992      10.954000000000001
    62   2                -12.9238     -9.2317699999999991      9.8663100000000004
    63   7                -11.9564     -9.2438300000000009      8.8073599999999992
    64   2                 -10.718     -8.9556299999999993      9.3429000000000002
    65   7     -9.6616999999999997     -8.9772200000000009      8.7382799999999996
    66   7                -10.7964     -8.6202299999999994                 10.6831
    67   4     -12.472799999999999     -8.9290599999999998      11.999599999999999
    68   4     -12.490399999999999     -7.4523900000000003      10.979799999999999
    69   4                -13.7965     -8.7500400000000003      9.5038099999999996
    70   4     -13.262600000000001                -10.2331      9.9491700000000005
    71   2      10.954800000000001      26.639099999999999     -9.4180299999999999
    72   2      12.093500000000001      26.980499999999999     -8.4028200000000002
    73   7                 12.9079      25.688199999999998     -8.4694699999999994
    74   2                 12.6157      25.101099999999999     -9.6837400000000002
    75   7                 13.2172      24.196300000000001                -10.1874
    76   7      11.466200000000001                 25.5825                -10.2325
    77   4                   10.76      27.485299999999999                -10.0489
    78   4                  10.138      26.282900000000001     -8.8503600000000002
    79   4                 11.6511      27.103100000000001     -7.4300699999999997
    80   4      12.827400000000001                 27.7622     -8.6213099999999994
    81   2      7.1522800000000002                 13.3759      6.1297899999999998
    82   2      5.9412599999999998      14.357200000000001      6.3694699999999997
    83   7      5.0964600000000004                 13.4817      7.2116699999999998
    84   2      5.9270699999999996                 12.6289      7.8796799999999996
    85   7      5.5609200000000003                 12.0433      8.8808100000000003
    86   7      7.1831100000000001      12.578099999999999      7.3396999999999997
    87   4      8.1740200000000005                 13.8302                 6.01938
    88   4      6.8780799999999997      12.739599999999999      5.2463300000000004
    89   4      5.3181099999999999                 14.5992      5.4770700000000003
    90   4      6.1373600000000001      15.252000000000001      6.9402600000000003
    91   2               -0.304066                 12.8787      3.9277799999999998
    92   2    -0.68747000000000003                 13.6052      2.6596299999999999
    93   7    -0.78529400000000005      12.601699999999999                 1.63357
    94   2    -0.29888799999999999                 11.4039      2.0563500000000001
    95   7                -0.24553                 10.4063                 1.37083
    96   7              -0.0811191                 11.4994      3.4299300000000001
    97   4                -1.10697                 12.8691      4.6954399999999996
    98   4                0.632135                 13.2172      4.4119000000000002
    99   4    0.031059099999999999      14.407999999999999      2.3815900000000001
   100   4                -1.68855                  14.083      2.7391299999999998
   101   2                 2.32314      7.9040499999999998      7.2047800000000004
   102   2      1.3574900000000001      7.1265400000000003      6.2345100000000002
   103   7                0.117225      7.1650400000000003      6.9850300000000001
   104   2     0.21896199999999999      7.9333400000000003      8.0864700000000003
   105   7    -0.62043999999999999      8.3926599999999993      8.8752300000000002
   106   7      1.4336599999999999      8.4249500000000008      8.2742500000000003
   107   4      2.8497400000000002      8.8066300000000002      6.8282600000000002
   108   4      3.0183399999999998      7.1512700000000002      7.6531399999999996
   109   4                 1.66327      6.0802699999999996      6.1394099999999998
   110   4                 1.13395      7.6294199999999996                 5.30084
   111   2                -6.35968                -1.45699                -1.87327
   112   2     -5.0369900000000003                -1.94374                 -2.4718
   113   7     -5.2985600000000002                -3.40985     -2.5728599999999999
   114   2     -6.5774299999999997     -3.6763599999999999     -2.5633599999999999
   115   7     -6.9681100000000002     -4.8170700000000002     -2.7570999999999999
   116   7     -7.3194900000000001     -2.5227300000000001     -2.2398400000000001
   117   4                -6.75814    -0.50659500000000002     -2.3218299999999998
   118   4                -6.33134     -1.3891899999999999    -0.79329300000000003
   119   4     -4.1633300000000002     -1.7734700000000001                -1.83786
   120   4     -4.8312499999999998                -1.56148     -3.4993799999999999
   121   2      23.093499999999999                 15.8408      5.2606599999999997
   122   2      24.503900000000002      15.463200000000001      5.8802300000000001
   123   7      25.341699999999999                 16.4207                 5.19923
   124   2                 24.6538                 17.6172      5.0650700000000004
   125   7      25.236000000000001      18.578600000000002      4.6433200000000001
   126   7      23.271799999999999      17.388999999999999      5.2452500000000004
   127   4      22.086500000000001      15.644500000000001      5.6632499999999997
   128   4      23.110499999999998                 15.5411      4.2400500000000001
   129   4                 24.8065                 14.4666      5.4697399999999998
   130   4                  24.619                 15.4473      7.0011599999999996
   131   2      11.538399999999999      20.836099999999998                 15.7057
   132   2                 11.7607                 19.4894      16.475000000000001
   133   7      12.902699999999999                 18.8811                  15.801
   134   2      13.096399999999999      19.464500000000001                 14.6637
   135   7                 13.8447                 19.1081      13.772500000000001
   136   7                 12.3772      20.715199999999999                 14.5251
   137   4      11.946999999999999      21.695900000000002                 16.2546
   138   4                 10.4849                 20.9435      15.424300000000001
   139   4                 10.8927                 18.8035      16.360600000000002
   140   4                 12.0854      19.498999999999999      17.528600000000001
   141   2      23.712199999999999      25.230699999999999      5.2556099999999999
   142   2                 23.0946      24.222000000000001      6.2553299999999998
   143   7                 21.6709      24.194900000000001      5.8141699999999998
   144   2      21.510300000000001      24.918700000000001      4.7020099999999996
   145   7                 20.4312      25.201899999999998                 4.13225
   146   7                 22.6906                 25.4937      4.2929199999999996
   147   4                 24.5898      24.880099999999999      4.6200599999999996
   148   4      23.877600000000001      26.180199999999999      5.7823900000000004
   149   4      23.013200000000001      24.546199999999999      7.2817299999999996
   150   4      23.452999999999999      23.208200000000001      6.0850799999999996
   151   2     -5.7172299999999998      17.087299999999999     -6.6390700000000002
   152   2     -4.3463000000000003      16.440300000000001     -6.5336299999999996
   153   7     -3.5279400000000001                 17.6279     -6.4217399999999998
   154   2     -4.3483000000000001                 18.5854     -5.7797400000000003
   155   7                -3.88537      19.722899999999999     -5.5812099999999996
   156   7     -5.6200200000000002      18.163699999999999     -5.5867300000000002
   157   4     -6.4621500000000003                 16.3872     -6.2604300000000004
   158   4     -6.0425199999999997                  17.503     -7.5179900000000002
   159   4     -4.1481000000000003                 15.8431     -7.4124699999999999
   160   4     -4.2385799999999998      15.865399999999999     -5.5440500000000004
   161   2                -1.48034                 12.9953                 14.8553
   162   2    0.062755599999999995      13.081200000000001      14.722899999999999
   163   7                 0.37062                 12.2019                 13.6473
   164   2    -0.63755899999999999      11.321899999999999      13.407299999999999
   165   7    -0.50527200000000005                 10.3604                 12.6738
   166   7     -1.8065800000000001                 11.7098                  14.019
   167   4                 -1.9842      13.823700000000001                 14.3963
   168   4                -1.99505                  12.817                 15.8163
   169   4                0.526671                 12.8187                  15.685
   170   4     0.30611300000000002                 14.1081      14.422800000000001
   171   2      20.331600000000002                 24.7788      21.453700000000001
   172   2      21.049900000000001      23.418700000000001                 21.4572
   173   7      20.629999999999999                 22.7422                 22.6982
   174   2      19.656199999999998      23.506900000000002                 23.2818
   175   7      19.118400000000001                 23.1294      24.302499999999998
   176   7      19.426100000000002      24.703499999999998      22.670100000000001
   177   4      19.648299999999999      24.869499999999999      20.558499999999999
   178   4      20.981000000000002                 25.7075                 21.5381
   179   4                 22.1587      23.499199999999998      21.544899999999998
   180   4      20.693000000000001                 22.8414                 20.6221
   181   2                 15.7193                 11.4771                 14.8668
   182   2      17.114599999999999      12.108700000000001      14.739599999999999
   183   7      16.780100000000001                 13.5183      14.387600000000001
   184   2                 15.5014      13.546799999999999      13.848599999999999
   185   7      14.934900000000001                 14.5426                 13.3567
   186   7      14.904400000000001                 12.3393      13.928800000000001
   187   4      15.392300000000001                  11.554                 15.8086
   188   4      15.577199999999999                 10.4367                 14.4993
   189   4      17.760400000000001                 11.7171                 13.9839
   190   4                 17.5825      12.206799999999999                 15.7302
   191   2                 16.0837                 24.6556                   19.34
   192   2      16.067599999999999      25.496400000000001      18.078700000000001
   193   7      15.095700000000001      24.805099999999999      17.283200000000001
   194   2                 14.7568      23.607299999999999      17.808700000000002
   195   7      14.049099999999999      22.756499999999999      17.252300000000002
   196   7                 15.3142      23.487500000000001      18.961200000000002
   197   4                 15.5854                 25.1419                 20.2502
   198   4      17.116199999999999      24.221499999999999                 19.6144
   199   4                  16.991      25.571400000000001      17.479099999999999
   200   4                 15.7981                 26.4907      18.333100000000002
   201   2                 15.9331                 14.9236      22.108799999999999
   202   2      17.304300000000001                 15.3338      22.543299999999999
   203   7      18.232199999999999                 14.4565                 21.9848
   204   2      17.705200000000001                 13.4779      21.285599999999999
   205   7      18.353300000000001                 12.7699      20.536000000000001
   206   7      16.282299999999999      13.658799999999999      21.340199999999999
   207   4      15.467599999999999                 15.6313                 21.3949
   208   4      15.233000000000001                 14.6416      22.916899999999998
   209   4      17.553899999999999                 15.3779      23.613700000000001
   210   4                 17.5212      16.339600000000001                 22.1784
   211   2      18.956900000000001      16.290400000000002      19.195599999999999
   212   2                 20.0213      16.148800000000001      18.111499999999999
   213   7                 19.5959      14.955399999999999      17.337599999999998
   214   2      18.489899999999999      14.448700000000001                 17.9969
   215   7      18.024799999999999      13.443199999999999                 17.6541
   216   7                 17.9815      15.270099999999999                  18.837
   217   4      18.402000000000001                 17.2425      19.232800000000001
   218   4                 19.3779                 15.9664      20.132999999999999
   219   4                 20.9541      15.894299999999999      18.611999999999998
   220   4      20.081099999999999      16.947099999999999                 17.4419
   221   2     -3.3677100000000002                 17.8703      6.4451700000000001
   222   2     -3.0681600000000002      17.561499999999999      4.9455299999999998
   223   7                -2.88137      18.869900000000001      4.3568699999999998
   224   2     -3.4474800000000001      19.860199999999999      5.1943200000000003
   225   7     -3.4586899999999998      21.033300000000001      4.9178600000000001
   226   7     -3.8724599999999998                 19.2943                 6.29908
   227   4                -2.46278                 17.8735      7.1026999999999996
   228   4     -4.1898799999999996      17.221599999999999      6.6953699999999996
   229   4                -4.07376      17.170999999999999      4.5356699999999996
   230   4     -2.2097500000000001      16.963899999999999      4.6383200000000002
   231   2                 12.2325                 17.1035      21.583200000000001
   232   2                 11.2186      17.075500000000002      22.821300000000001
   233   7      10.644600000000001                 15.7195      22.654599999999999
   234   2      11.354200000000001      14.999499999999999      21.761199999999999
   235   7                 11.1547                 13.8066      21.537600000000001
   236   7                 12.3696      15.705500000000001                 21.1601
   237   4                 13.2226      17.506499999999999      21.937999999999999
   238   4      11.867800000000001                  17.645                 20.6615
   239   4      10.367000000000001      17.763200000000001      22.703199999999999
   240   4      11.690899999999999      17.247800000000002                 23.7926
   241   2                 5.78552      21.110700000000001      19.679500000000001
   242   2      5.8985900000000004      22.360399999999998      18.822800000000001
   243   7      4.5447699999999998                 22.8276      18.673100000000002
   244   2      3.8245900000000002      22.391500000000001      19.759599999999999
   245   7                 2.77536      22.827999999999999                 20.0791
   246   7      4.4857100000000001      21.394300000000001      20.413399999999999
   247   4      6.6219599999999996                 21.0701                 20.4223
   248   4      5.6786300000000001                 20.1645      19.071899999999999
   249   4      6.2558400000000001                   22.23                 17.7944
   250   4                 6.50129      23.134899999999998                 19.2819
   251   2                 19.6677      19.696100000000001                 1.03067
   252   2      20.285399999999999                 18.3476                 1.39306
   253   7      20.349499999999999      17.667000000000002     0.12998199999999999
   254   2      20.446899999999999      18.607099999999999    -0.84409100000000004
   255   7      20.835899999999999      18.475100000000001     -1.9502699999999999
   256   7      19.957100000000001                 19.8142    -0.39061099999999999
   257   4      20.081099999999999                  20.544                 1.55304
   258   4      18.590199999999999                 19.6188      1.2295499999999999
   259   4                 19.6112                 17.7257      2.1234999999999999
   260   4      21.286899999999999      18.506699999999999                  1.8089
   261   2      2.3090700000000002      13.632999999999999     -3.2379199999999999
   262   2      1.3939699999999999                  13.843     -2.1073599999999999
   263   7      1.7773000000000001      12.705500000000001                -1.23933
   264   2                 2.19638                 11.7087     -2.0451199999999998
   265   7      2.3845999999999998      10.613300000000001     -1.6132299999999999
   266   7      2.4765100000000002                  12.185     -3.3151999999999999
   267   4      3.1979000000000002                 14.2371                -3.12486
   268   4                 1.86364      13.827999999999999     -4.2284100000000002
   269   4     0.34259200000000001      13.787100000000001                -2.36002
   270   4      1.5213699999999999      14.754899999999999     -1.5330699999999999
   271   2                 5.31813      9.0919899999999991      8.5933600000000006
   272   2      6.6497799999999998      8.9294899999999995      9.3088300000000004
   273   7      6.7250300000000003      7.5145999999999997                 9.68736
   274   2      5.8254599999999996      6.8646900000000004      8.8960699999999999
   275   7      5.7276199999999999      5.6450699999999996      8.7999899999999993
   276   7      4.9401700000000002      7.7198700000000002      8.3268699999999995
   277   4      5.2340999999999998                 9.65245      7.6052799999999996
   278   4      4.5216900000000004      9.5788700000000002      9.1643399999999993
   279   4      6.7033100000000001      9.4235900000000008                 10.2194
   280   4      7.3411099999999996      9.1798000000000002      8.5470600000000001
   281   2                 7.22912      4.1858599999999999                  11.429
   282   2      5.7373900000000004      3.8297500000000002      11.322900000000001
   283   7      5.6561599999999999      2.4761500000000001                 10.7621
   284   2      6.9663899999999996      2.1154000000000002      10.453799999999999
   285   7      7.1923500000000002                 1.00539      9.9098900000000008
   286   7      7.9220699999999997      3.0478700000000001      10.880100000000001
   287   4      7.6894099999999996      4.4273800000000003      12.402799999999999
   288   4      7.4635400000000001      4.9322299999999997      10.612500000000001
   289   4      5.1920700000000002      4.4378399999999996                 10.6038
   290   4      5.1497200000000003      3.6724299999999999      12.220000000000001
   291   2      15.869300000000001      3.9330500000000002      10.456200000000001
   292   2      15.120200000000001      3.3834399999999998      9.2291699999999999
   293   7      13.994400000000001      4.2642499999999997      9.0283499999999997
   294   2                 13.9566      5.2438500000000001      10.000400000000001
   295   7      12.960000000000001      5.9602399999999998                 10.0914
   296   7                  15.115      5.1866500000000002                 10.7159
   297   4      16.909700000000001      4.1223799999999997                 10.2621
   298   4                 15.7957      3.2641499999999999                 11.3316
   299   4      14.710100000000001                 2.40984      9.5284300000000002
   300   4                 15.6227      3.3871699999999998      8.2104199999999992
   301   2      20.398599999999998      8.5175999999999998      3.7416700000000001
   302   2      20.292100000000001      9.4639399999999991      4.9046799999999999
   303   7                 19.5046      8.7454800000000006      5.9372299999999996
   304   2      19.052399999999999      7.6264500000000002      5.3763199999999998
   305   7      18.160399999999999      6.9668200000000002                 5.84781
   306   7                 19.5215      7.3862399999999999      4.1475099999999996
   307   4      21.416499999999999      8.1326099999999997      3.5444200000000001
   308   4      19.969100000000001      8.7995199999999993      2.7787799999999998
   309   4      19.760100000000001      10.406000000000001      4.8711900000000004
   310   4                  21.317      9.5729199999999999      5.2506199999999996
   311   2    -0.25920199999999999      18.714700000000001      14.474399999999999
   312   2                 1.00082                 18.9772                 13.6129
   313   7      1.9893400000000001      18.279499999999999      14.398300000000001
   314   2                 1.36887      17.199200000000001                 14.9442
   315   7                 1.95099      16.308499999999999                 15.5655
   316   7   0.0067708100000000004      17.325099999999999                 14.9107
   317   4     -1.1246400000000001      18.664000000000001                 13.8142
   318   4    -0.50994600000000001      19.404900000000001                 15.3126
   319   4      1.2946800000000001      20.018999999999998                 13.6539
   320   4     0.94970900000000003                 18.6203      12.563599999999999
   321   2                 12.8063     -7.3958399999999997      18.453600000000002
   322   2                 13.1953     -7.5112100000000002                 16.9788
   323   7                 14.3187     -8.4228400000000008      17.084900000000001
   324   2      14.277799999999999     -9.1630099999999999                 18.2575
   325   7      14.991899999999999     -10.101100000000001                 18.6145
   326   7                 13.2752     -8.7003199999999996      19.027899999999999
   327   4                 11.7445                -7.35114                 18.5914
   328   4      13.232200000000001     -6.5683400000000001      19.041899999999998
   329   4                 13.4909     -6.5869499999999999      16.561399999999999
   330   4                 12.3764                -7.96774      16.400700000000001
   331   2      15.587899999999999      21.874099999999999                 14.7431
   332   2      14.779299999999999      23.033899999999999                 14.1602
   333   7                 15.8444      23.985499999999998                 13.7369
   334   2                  16.933                 23.7319      14.567299999999999
   335   7                 17.9727      24.401900000000001                  14.557
   336   7      16.694500000000001      22.632200000000001                 15.3949
   337   4                 15.9977      21.188300000000002                 13.9963
   338   4                  15.077      21.356000000000002                 15.5177
   339   4                 14.1494      23.454599999999999                 15.0223
   340   4                 14.1767      22.766400000000001      13.287599999999999
   341   2      20.601099999999999    -0.42561500000000002      17.986899999999999
   342   2                 20.5623     0.13228100000000001                 16.5077
   343   7                 20.2376                 1.53064      16.779399999999999
   344   2      19.650700000000001                   1.663      17.998000000000001
   345   7      19.231300000000001      2.7915800000000002      18.328700000000001
   346   7                 19.6708                0.495286      18.734300000000001
   347   4                 21.5914    -0.49632100000000001      18.405799999999999
   348   4      20.049399999999999                -1.39791      18.224599999999999
   349   4      19.815300000000001               -0.327515      15.873100000000001
   350   4      21.613900000000001    0.092185799999999998                 16.0305
   351   2      6.5106799999999998      9.5298599999999993      4.2991799999999998
   352   2      7.7183700000000002      9.0171500000000009      3.5426799999999998
   353   7      8.7432700000000008      8.9101400000000002                 4.65402
   354   2      8.2034699999999994      9.5064700000000002      5.7526099999999998
   355   7      8.8085400000000007      9.6256900000000005      6.7996600000000003
   356   7      6.9523000000000001      9.9710800000000006      5.5362999999999998
   357   4      5.7104499999999998                 8.73691      4.3823400000000001
   358   4      5.9625399999999997      10.367000000000001      3.8387199999999999
   359   4      8.0329099999999993      9.8180399999999999      2.8627199999999999