(written by ASE)

915 atoms
9 atom types

0.0      21.712770568302616  xlo xhi
0.0      21.712770568302616  ylo yhi
0.0      21.712770568302616  zlo zhi

Atoms # atomic

     1   2      14.634399999999999      6.6682399999999999      5.0090700000000004
     2   2                 13.8674      5.3542199999999998                 5.22037
     3   7                 14.8248      4.2506899999999996      4.8956099999999996
     4   2      15.931699999999999      4.8843899999999998      4.5077199999999999
     5   7                 16.9434                 4.26023                 4.14832
     6   7                 15.9247      6.2331700000000003      4.5901800000000001
     7   4      14.776199999999999      7.0685099999999998      6.0232599999999996
     8   4                 14.2346      7.2750399999999997      4.1913200000000002
     9   4      12.916600000000001      5.2216199999999997      4.6393199999999997
    10   4                 13.5853      5.1873300000000002      6.2450700000000001
    11   2      3.0259200000000002                  11.654                 24.1065
    12   2      3.4537599999999999                 12.6487                 25.2331
    13   7      3.8665500000000002      11.687900000000001      26.251100000000001
    14   2      3.3806500000000002                  10.448      26.022500000000001
    15   7      3.2632599999999998      9.5727100000000007      26.845500000000001
    16   7      3.0174500000000002      10.315200000000001                 24.6815
    17   4      3.6587100000000001      11.625400000000001      23.184899999999999
    18   4                 2.04535      11.977600000000001                  23.808
    19   4      2.5219299999999998                 13.1111      25.635100000000001
    20   4      4.2703100000000003                 13.3184      24.977599999999999
    21   2      3.3102299999999998      2.0611600000000001      16.474699999999999
    22   2      4.5462499999999997                 1.53217                  15.794
    23   7                 4.70411      2.1886399999999999                 14.5466
    24   2      3.4638499999999999      2.4807199999999998      14.183299999999999
    25   7                 3.17632      2.5891899999999999      13.038399999999999
    26   7      2.5641699999999998      2.4839099999999998                 15.2239
    27   4      3.4461300000000001      3.0474600000000001      16.936199999999999
    28   4      2.7149399999999999      1.3307800000000001      17.010000000000002
    29   4      4.5004600000000003     0.41103400000000001      15.552099999999999
    30   4      5.4780100000000003                 1.87127      16.333300000000001
    31   2                 11.3642   -0.077883900000000006     -1.4911300000000001
    32   2      10.355499999999999     0.81718400000000002     -2.3201900000000002
    33   7                  10.853      2.1663199999999998                -1.94347
    34   2      12.157999999999999      2.0829900000000001     -1.4616499999999999
    35   7                 12.8439      2.9818699999999998                -1.15377
    36   7      12.566599999999999     0.75105999999999995     -1.3325400000000001
    37   4                 11.7264    -0.95669899999999997                -1.99234
    38   4                 10.9306    -0.24748899999999999    -0.48903600000000003
    39   4      9.3332499999999996     0.78069999999999995                -1.95939
    40   4                 10.2644     0.63796399999999998     -3.4043999999999999
    41   2      7.8174400000000004      5.0128899999999996                 15.3125
    42   2      7.5573899999999998      6.4878799999999996                 15.1303
    43   7      6.4097600000000003      6.6217499999999996      15.985200000000001
    44   2      5.7548399999999997      5.3979200000000001      16.111599999999999
    45   7      4.6746600000000003      5.2995700000000001      16.708400000000001
    46   7      6.4981400000000002      4.4334300000000004      15.496499999999999
    47   4      8.5293100000000006      4.7258899999999997      16.156600000000001
    48   4                 8.21753      4.6182100000000004                  14.355
    49   4      7.1910699999999999      6.6619599999999997                 14.0779
    50   4      8.4827600000000007      7.0473600000000003      15.481999999999999
    51   2      10.900499999999999      1.9457800000000001                 7.74498
    52   2                 10.4962      2.9047200000000002      6.5440800000000001
    53   7      9.2654300000000003      2.3269700000000002      5.9755099999999999
    54   2      8.7967999999999993      1.4772700000000001      6.9582199999999998
    55   7                 7.69923     0.98508899999999999                 6.87887
    56   7      9.5960900000000002                 1.37639      8.0780799999999999
    57   4      11.279500000000001                 2.51641      8.5917700000000004
    58   4                 11.6243                 1.12913      7.4872100000000001
    59   4                 11.2783      2.9152499999999999      5.7136800000000001
    60   4      10.223100000000001                  3.9859      6.8583699999999999
    61   2                -13.4422     -7.3682499999999997                 10.0099
    62   2     -13.004899999999999     -7.6077199999999996                 8.60168
    63   7                -11.5663     -7.9183000000000003      8.8483900000000002
    64   2                -11.4238     -8.3830200000000001                 10.0832
    65   7                -10.3809     -8.9760000000000009      10.411099999999999
    66   7     -12.511100000000001     -8.1802299999999999                 10.8042
    67   4                -14.5313     -7.6832200000000004                  10.276
    68   4                -13.3489                -6.37967      10.416499999999999
    69   4                -13.0862     -6.6617499999999996                 8.07484
    70   4     -13.509399999999999                -8.54345      8.1692800000000005
    71   2                 10.8399      24.620000000000001     -9.9011899999999997
    72   2      11.648999999999999      24.468800000000002                -8.58995
    73   7                 13.0526      24.627500000000001                -9.01553
    74   2      13.099600000000001      24.140899999999998                -10.3001
    75   7                 14.1556                 23.8461     -10.894600000000001
    76   7                 11.8581      23.999500000000001                -10.7799
    77   4      10.704800000000001      25.628699999999998                -10.2904
    78   4      9.9170099999999994                 24.0684     -10.082100000000001
    79   4      11.478199999999999      23.459199999999999     -8.1869800000000001
    80   4                 11.4495      25.263300000000001     -7.9387100000000004
    81   2      6.8269099999999998                 13.6729      5.1768400000000003
    82   2      7.2355099999999997      15.110900000000001      5.6162700000000001
    83   7                 6.62256                 15.2464      6.9541000000000004
    84   2      5.6893099999999999      14.306900000000001      7.1380600000000003
    85   7      4.9329000000000001      14.279400000000001      8.0808700000000009
    86   7      5.8991800000000003      13.316000000000001      6.2731899999999996
    87   4      7.6965899999999996      13.028600000000001      5.2168200000000002
    88   4      6.2521599999999999                 13.5434      4.2404299999999999
    89   4      6.9039200000000003                 15.9498      5.0055300000000003
    90   4      8.3031400000000009                 15.2652      5.8479000000000001
    91   2     -2.2004199999999998                 14.5151                 2.62052
    92   2                -1.82803      15.029299999999999                 1.21855
    93   7                 -1.1392                 13.8932                  0.5927
    94   2    -0.97519299999999998                 12.9299                 1.53467
    95   7    -0.48729099999999997                 11.8637      1.2668999999999999
    96   7     -1.5553600000000001                 13.2584      2.7559900000000002
    97   4     -3.2985000000000002                 14.3414      2.7402000000000002
    98   4     -1.8216600000000001                 15.1546      3.4430800000000001
    99   4     -1.1214599999999999                 15.9015                 1.25017
   100   4                -2.71075                 15.3955     0.63156999999999996
   101   2                 3.19726      7.3584899999999998      7.4694099999999999
   102   2      2.0527299999999999                  6.8746      6.5005600000000001
   103   7                0.816778      7.6216400000000002      7.0160900000000002
   104   2                 1.16581      8.3416700000000006      8.0990500000000001
   105   7     0.53947299999999998      8.9536700000000007      8.9025700000000008
   106   7      2.5200100000000001      8.4142600000000005      8.2449100000000008
   107   4      4.0434599999999996      7.7533200000000004      6.8962399999999997
   108   4      3.5555500000000002      6.6221100000000002      8.2535799999999995
   109   4                 1.84988      5.8321500000000004      6.4300899999999999
   110   4      2.1674600000000002      7.2611299999999996      5.4891699999999997
   111   2     -6.7424299999999997     -1.6816899999999999     -1.2676700000000001
   112   2     -5.4371700000000001     -2.0066299999999999     -2.0280100000000001
   113   7     -5.4877900000000004     -3.4879899999999999                -2.16018
   114   2     -6.7528100000000002                -3.88124                  -1.841
   115   7     -6.9656700000000003     -5.0672600000000001                -1.64334
   116   7     -7.6669499999999999     -2.8548800000000001                -1.62954
   117   4     -7.2354599999999998    -0.77957100000000001     -1.5605599999999999
   118   4     -6.5657899999999998                -1.82423    -0.15943599999999999
   119   4     -4.5402100000000001                -1.72471     -1.4336100000000001
   120   4     -5.4188000000000001     -1.6216900000000001     -3.0722700000000001
   121   2      23.443899999999999                 15.8817      5.6736199999999997
   122   2                  24.968                 15.8621      5.6602399999999999
   123   7      25.229700000000001      17.336500000000001      5.6931000000000003
   124   2      24.149100000000001      17.978300000000001      5.2299199999999999
   125   7      24.316400000000002      19.148499999999999      4.9637500000000001
   126   7      23.059799999999999      17.151399999999999      5.1293199999999999
   127   4      23.135000000000002                 15.9034                 6.69665
   128   4      22.950500000000002                 15.0707      5.1193200000000001
   129   4                 25.3964      15.512700000000001      4.6893200000000004
   130   4      25.304500000000001                 15.3164                 6.56717
   131   2      11.916399999999999      19.944099999999999      16.064499999999999
   132   2      12.911799999999999      19.078099999999999      16.817299999999999
   133   7                 13.4488                 18.1936      15.739699999999999
   134   2                 13.2768      18.729600000000001      14.533099999999999
   135   7      13.813499999999999      18.404800000000002      13.464499999999999
   136   7      12.427199999999999                 19.8977                 14.6554
   137   4      11.862299999999999      20.971599999999999                 16.4589
   138   4      10.944699999999999      19.521799999999999      16.189399999999999
   139   4                 12.4656      18.326499999999999                 17.5107
   140   4                 13.7796      19.598400000000002      17.257999999999999
   141   2      23.202400000000001                 24.3917      5.8853799999999996
   142   2      22.268799999999999      23.862200000000001      6.9636500000000003
   143   7      20.908100000000001                 23.9373                 6.42875
   144   2      20.982199999999999      24.485199999999999      5.1870700000000003
   145   7      19.999700000000001      24.646899999999999      4.4688699999999999
   146   7      22.249199999999998      24.803699999999999                 4.74648
   147   4      23.818899999999999      23.613900000000001      5.4401000000000002
   148   4                 23.6557                 25.3569      6.1151900000000001
   149   4      22.283000000000001      24.456399999999999                 7.88687
   150   4      22.403400000000001      22.866499999999998      7.3408100000000003
   151   2     -5.5303100000000001      16.804500000000001     -6.2908099999999996
   152   2     -4.1744899999999996                  16.148     -6.3956999999999997
   153   7     -3.2514500000000002      16.999700000000001     -5.7613000000000003
   154   2     -3.7978200000000002      18.202500000000001     -5.5447800000000003
   155   7     -3.2167400000000002      19.138500000000001     -4.9867499999999998
   156   7     -5.0970599999999999                 18.2438     -6.0134400000000001
   157   4     -5.9549500000000002      16.441299999999998     -5.4105600000000003
   158   4                -6.17814      16.764099999999999     -7.1214500000000003
   159   4                -3.85873      16.020199999999999     -7.4788899999999998
   160   4     -4.0995400000000002      15.138299999999999     -6.0403399999999996
   161   2     -1.3352900000000001      12.081200000000001                 15.8698
   162   2                0.133545      11.791399999999999      15.471500000000001
   163   7    0.036005299999999997                 11.1067      14.188800000000001
   164   2                -1.23506      11.275700000000001                 13.6816
   165   7     -1.4699899999999999                 10.9701                 12.5342
   166   7     -2.0962900000000002                 11.7315                 14.5898
   167   4     -1.4182300000000001                   13.16                 16.1312
   168   4                -1.70031      11.472799999999999      16.699999999999999
   169   4     0.64612400000000003      11.177300000000001                 16.2316
   170   4     0.68681700000000001      12.723800000000001                 15.2272
   171   2      19.778400000000001      24.180900000000001                  21.279
   172   2      21.010300000000001      23.631699999999999      22.088999999999999
   173   7      20.447099999999999                 23.1417      23.290700000000001
   174   2                 19.1736      23.530100000000001                 23.3718
   175   7      18.453199999999999                 23.2959                 24.3306
   176   7      18.802499999999998      24.293800000000001      22.307600000000001
   177   4      19.469000000000001      23.590499999999999      20.468900000000001
   178   4                 20.0489      25.157699999999998      20.931999999999999
   179   4                 21.6144      24.416699999999999      22.430800000000001
   180   4      21.615300000000001      22.805800000000001      21.619800000000001
   181   2      15.335100000000001                 11.3245      14.451499999999999
   182   2      16.847899999999999                 11.7461                 14.4023
   183   7                 16.7621      13.080299999999999      13.771100000000001
   184   2      15.463100000000001                 13.4214                  13.557
   185   7                 15.1029                 14.4679                 13.1409
   186   7      14.647399999999999                 12.3827      13.835000000000001
   187   4                 14.8544      11.169700000000001      15.399699999999999
   188   4      15.180300000000001      10.422499999999999                 13.7805
   189   4                 17.5288      11.098100000000001                 13.8192
   190   4      17.337599999999998      11.921900000000001      15.390700000000001
   191   2      16.310300000000002      23.760999999999999      19.633900000000001
   192   2                 16.3432      24.524000000000001      18.235299999999999
   193   7                 15.3363                 23.8523      17.405200000000001
   194   2                 14.8543                 22.7851      18.129100000000001
   195   7      14.050000000000001      21.992899999999999                 17.6556
   196   7      15.394600000000001                 22.5974      19.385200000000001
   197   4                 15.8711                 24.2668      20.431799999999999
   198   4      17.273700000000002      23.297699999999999      20.014600000000002
   199   4                 17.3414      24.545400000000001      17.697600000000001
   200   4                 15.8954      25.558800000000002      18.315100000000001
   201   2                 15.0534                 13.6623                 21.0581
   202   2                 15.7285                  14.323      22.264500000000002
   203   7      17.096800000000002      13.843400000000001      22.309999999999999
   204   2      17.199000000000002      12.827999999999999      21.469899999999999
   205   7                 18.2577      12.272399999999999      21.243500000000001
   206   7      16.101199999999999      12.722899999999999      20.558900000000001
   207   4                 14.6911                  14.391                  20.276
   208   4      14.217499999999999                 13.1389      21.553000000000001
   209   4      15.225899999999999                  13.919      23.140599999999999
   210   4      15.771000000000001                 15.3925      22.222799999999999
   211   2      18.786200000000001                 16.1309      19.290600000000001
   212   2                 20.0823                 15.3323      18.995799999999999
   213   7                 19.5869      14.100300000000001      18.241900000000001
   214   2                 18.2346      14.146699999999999                 18.1099
   215   7      17.516100000000002                  13.381      17.415700000000001
   216   7      17.726900000000001                 15.2151      18.805399999999999
   217   4      18.738299999999999      17.135300000000001      18.892199999999999
   218   4                  18.552      16.251300000000001      20.400300000000001
   219   4      20.622800000000002                 14.9429      19.959499999999998
   220   4      20.760100000000001      15.782299999999999                 18.3246
   221   2     -3.5970900000000001      18.082799999999999      6.0029500000000002
   222   2     -2.3321200000000002      18.194700000000001      5.1462599999999998
   223   7     -2.5844900000000002      19.502300000000002      4.4843099999999998
   224   2     -3.5576300000000001      20.164100000000001      5.0936599999999999
   225   7     -3.7835999999999999      21.359400000000001                 4.99397
   226   7     -4.1957100000000001      19.409700000000001      6.0770400000000002
   227   4                -3.30294      17.700399999999998      7.0347099999999996
   228   4     -4.4214000000000002      17.374300000000002      5.6591100000000001
   229   4                -2.22906      17.459700000000002      4.2801099999999996
   230   4                -1.55461      18.327300000000001      5.8721699999999997
   231   2      11.736800000000001                 17.4557      22.241499999999998
   232   2                 10.3003      17.233699999999999      22.810300000000002
   233   7      10.202999999999999                 15.7003      22.831199999999999
   234   2      11.401400000000001                 15.1998                 22.4175
   235   7                 11.6275      14.009499999999999                 22.4481
   236   7                 12.2127      16.124300000000002                 21.9847
   237   4                 12.3551      17.851700000000001      23.081099999999999
   238   4                 11.8116      17.937799999999999                 21.1919
   239   4      9.5406499999999994                 17.7043      22.242000000000001
   240   4                 10.2211                 17.4651      23.875299999999999
   241   2      6.7177100000000003      21.853400000000001      20.364899999999999
   242   2      6.9096299999999999      23.059100000000001      19.480499999999999
   243   7      5.5643200000000004      23.439499999999999      19.048200000000001
   244   2      4.6511899999999997      22.828900000000001      19.862200000000001
   245   7                 3.47811      23.110399999999998      19.886600000000001
   246   7      5.2660999999999998      21.784500000000001                 20.5779
   247   4      7.1469100000000001      21.922899999999998      21.398800000000001
   248   4      7.0794499999999996      20.907499999999999      19.875800000000002
   249   4      7.4245200000000002      22.764900000000001      18.573599999999999
   250   4      7.3740100000000002      23.947800000000001      19.924600000000002
   251   2      19.375599999999999      20.015999999999998     0.71738199999999996
   252   2      19.453499999999998      18.529699999999998                  1.1919
   253   7      20.210599999999999                  17.846    0.095018400000000003
   254   2                 20.2179                 18.6493                -1.02735
   255   7      20.588899999999999      18.339200000000002     -2.1441499999999998
   256   7      19.707699999999999      19.932600000000001    -0.74658000000000002
   257   4                 20.0703      20.692499999999999                 1.19973
   258   4      18.333200000000001      20.308800000000002     0.93310099999999996
   259   4                 18.4041                 18.1297      1.0886199999999999
   260   4                 19.8477      18.313199999999998                  2.1494
   261   2     0.97728800000000005      12.966699999999999     -3.2529699999999999
   262   2     0.70039700000000005                 12.7616     -1.7239199999999999
   263   7                 1.67069      11.781000000000001     -1.4003099999999999
   264   2      2.5434399999999999                 11.4823     -2.3748800000000001
   265   7                 3.48428                 10.7461     -2.3444699999999998
   266   7      2.2094900000000002      12.266299999999999     -3.5444200000000001
   267   4                 1.12104      13.970000000000001     -3.5745200000000001
   268   4     0.18343999999999999      12.383800000000001     -3.7417899999999999
   269   4               -0.344057      12.369400000000001                -1.56558
   270   4     0.99999899999999997      13.578900000000001                -1.08786
   271   2      6.2858799999999997                 10.5047      8.6146100000000008
   272   2      6.9755399999999996                 10.2547                 9.89419
   273   7      7.2294299999999998      8.7821599999999993      9.8615499999999994
   274   2      6.6848400000000003      8.2370900000000002      8.6857500000000005
   275   7                 6.83331      7.0962100000000001      8.3499499999999998
   276   7      6.0427999999999997      9.2128700000000006      7.9982499999999996
   277   4      6.8509099999999998      11.097300000000001                 7.76898
   278   4      5.3079099999999997                 10.9078      8.7872900000000005
   279   4      6.4923700000000002      10.466900000000001                 10.8315
   280   4      7.9590100000000001                 10.6387      10.069599999999999
   281   2      7.2487399999999997      4.8766999999999996      10.900499999999999
   282   2      6.4678899999999997      4.3292200000000003                 12.0166
   283   7      5.9888199999999996      3.0834600000000001                 11.5192
   284   2      6.6963699999999999      2.7000099999999998                 10.4221
   285   7                 6.51891      1.6465099999999999      9.8397799999999993
   286   7                 7.51579      3.7217699999999998                 10.0853
   287   4      8.2180800000000005      5.3364099999999999                 11.3001
   288   4      6.7852499999999996      5.6200700000000001                 10.2927
   289   4      5.6476300000000004      4.8305400000000001      12.504099999999999
   290   4      7.0701000000000001      4.0737100000000002      12.903499999999999
   291   2      16.092300000000002      4.0893499999999996      9.6641600000000007
   292   2      15.238200000000001      3.7690899999999998      8.4118200000000005
   293   7      14.441700000000001      4.9596200000000001      8.1627700000000001
   294   2                 14.8058      5.8891499999999999      9.0338399999999996
   295   7      14.402100000000001      7.0207800000000002      8.8290799999999994
   296   7                 15.6968      5.4771700000000001      9.9993499999999997
   297   4      17.166499999999999      4.2446799999999998      9.4407099999999993
   298   4                 15.9885      3.3912100000000001                  10.475
   299   4                 14.6074      2.9431400000000001      8.6725999999999992
   300   4                  15.853      3.4845600000000001      7.5737300000000003
   301   2      21.473600000000001                 10.5787      4.7785399999999996
   302   2      19.979700000000001      10.858700000000001      5.0003000000000002
   303   7      19.522300000000001      9.4696999999999996      5.0962199999999998
   304   2      20.342099999999999      8.6509699999999992      4.2910000000000004
   305   7      20.004100000000001      7.5235799999999999      3.9003899999999998
   306   7      21.436800000000002      9.3633299999999995      3.8860199999999998
   307   4      21.963000000000001                 10.3245                 5.69787
   308   4                 22.0139                 11.2715      4.2458099999999996
   309   4                 19.4024      11.329700000000001      4.1771399999999996
   310   4      19.630700000000001                 11.2829      5.9512099999999997
   311   2    -0.64190800000000003      18.678599999999999                 13.6074
   312   2     0.84286099999999997                 18.8384                  13.634
   313   7                 1.29328      17.947600000000001      14.711600000000001
   314   2     0.23591899999999999                 17.2014      15.150700000000001
   315   7     0.28488999999999998      16.391999999999999      16.054500000000001
   316   7    -0.87806700000000004      17.528700000000001                 14.4857
   317   4    -0.98980800000000002      18.432500000000001                 12.5585
   318   4                 -1.2318      19.525500000000001      13.959899999999999
   319   4      1.1882900000000001      19.760100000000001                  14.032
   320   4                 1.42161                 18.6267      12.713200000000001
   321   2      12.112299999999999     -6.8223200000000004      18.491700000000002
   322   2      12.517300000000001     -6.4820700000000002      17.061599999999999
   323   7      13.743499999999999     -7.3253599999999999      16.821400000000001
   324   2                 13.6982     -8.2883600000000008                 17.7788
   325   7                 14.3447     -9.3030100000000004                 17.7879
   326   7                 12.8369     -8.0222599999999993      18.795200000000001
   327   4                 11.0619     -7.0934900000000001      18.594899999999999
   328   4      12.434900000000001     -6.0289999999999999      19.186599999999999
   329   4                 12.7803     -5.4486499999999998      16.967300000000002
   330   4                 11.7538                -6.70383                 16.3215
   331   2      16.027899999999999                 21.9909      14.797800000000001
   332   2      15.183299999999999      22.946400000000001                 14.0261
   333   7      15.762700000000001                 24.2423      14.392899999999999
   334   2      16.985399999999998                 24.0259                 14.8546
   335   7                 17.7913                  24.939                  15.023
   336   7      17.156300000000002                  22.779      15.291399999999999
   337   4                 16.3598      21.195399999999999                 14.1648
   338   4                 15.4527      21.663399999999999                 15.7127
   339   4                 14.1214      22.916899999999998      14.284700000000001
   340   4                 15.2637                 22.8093                 12.9168
   341   2      21.197800000000001    -0.66169100000000003      17.436399999999999
   342   2      20.568100000000001    -0.22209999999999999      16.106100000000001
   343   7      20.057200000000002      1.0953200000000001      16.413799999999998
   344   2      19.904699999999998                 1.26553      17.765699999999999
   345   7      19.385300000000001                 2.24986                  18.163
   346   7      20.506499999999999     0.24071999999999999      18.454599999999999
   347   4      22.290900000000001    -0.50846999999999998                 17.4877
   348   4      20.954899999999999     -1.6237699999999999      17.812999999999999
   349   4      19.738099999999999    -0.87995299999999999                 15.7668
   350   4                 21.2746    0.011502500000000001                 15.3756
   351   2                 6.70641      9.8917000000000002      3.7538999999999998
   352   2      7.5998000000000001      8.7011299999999991      4.1358300000000003
   353   7      8.6512399999999996      9.2639999999999993      4.9504700000000001
   354   2      8.0771899999999999                 10.3217      5.6514699999999998
   355   7      8.4941200000000006                 10.9137      6.6174799999999996
   356   7      6.8464499999999999      10.736499999999999      5.0609200000000003
   357   4      5.6976100000000001      9.5488700000000009      3.7845900000000001
   358   4      7.0786699999999998                  10.528      2.9148499999999999
   359   4      8.1150500000000001      8.2439099999999996      3.2708599999999999