(written by ASE)

888 atoms
9 atom types

0.0      21.553999999999998  xlo xhi
0.0      21.553999999999998  ylo yhi
0.0                  21.544  zlo zhi

Atoms # atomic

     1   2     -33.930999999999997                -12.7081      19.831299999999999
     2   4     -34.701300000000003                -12.3499      20.569299999999998
     3   4     -33.914499999999997     -13.785299999999999      19.502400000000002
     4   7     -32.600200000000001     -12.375500000000001      20.585999999999999
     5   2     -32.061199999999999                -11.2715      20.048400000000001
     6   7                 -31.038                  -10.69      20.386199999999999
     7   7     -32.790199999999999     -10.811199999999999                 18.9679
     8   2     -33.725099999999998                 -11.866                 18.5702
     9   4     -33.345799999999997     -12.346399999999999      17.652799999999999
    10   4     -34.671300000000002     -11.357100000000001      18.310099999999998
    11   2                -25.0505     -5.9881099999999998      5.9281100000000002
    12   4     -24.376100000000001     -6.6988500000000002                 6.36273
    13   4     -24.680299999999999      16.581399999999999      6.1271000000000004
    14   7     -26.398900000000001     -6.1105099999999997      6.6623299999999999
    15   2                 -27.282     -6.5450299999999997      5.7544599999999999
    16   7     -28.466000000000001                -6.75746      6.0321499999999997
    17   7                -26.7636     -6.6570499999999999      4.5383899999999997
    18   2     -25.356400000000001     -6.4096200000000003      4.4623400000000002
    19   4     -25.128499999999999     -5.6057899999999998      3.7443599999999999
    20   4     -25.030999999999999     -7.3418599999999996                 4.06358
    21   2     -26.062000000000001     -2.3541400000000001      3.0394299999999999
    22   4     -26.855799999999999     -3.1368399999999999                 2.99241
    23   4                -25.1723     -2.8155800000000002                 3.52494
    24   7     -26.525600000000001     -1.2191000000000001      3.9210600000000002
    25   2     -26.195399999999999   -0.078869099999999998      3.3148599999999999
    26   7                -26.3917                 1.01197      3.8473700000000002
    27   7     -25.557300000000001    -0.25723400000000002      2.0837400000000001
    28   2     -25.835799999999999                -1.62907                 1.71699
    29   4     -25.075900000000001     -2.0272700000000001      1.1167800000000001
    30   4     -26.823499999999999     -1.5488599999999999      1.1527400000000001
    31   2     -14.680099999999999      3.4011399999999998     -1.4000900000000001
    32   4                -15.1739                 3.51112               -0.489954
    33   4     -13.638299999999999      3.7688299999999999     -1.2269099999999999
    34   7                -15.3248      4.3017799999999999                -2.32517
    35   2     -15.302899999999999      3.6937199999999999     -3.6012300000000002
    36   7                -15.6835      4.1806400000000004                -4.65055
    37   7     -14.755000000000001      2.4478800000000001     -3.4933299999999998
    38   2                -14.6782                  2.0823     -2.0488300000000002
    39   4     -13.832800000000001                 1.44743                -1.84741
    40   4     -15.560499999999999      1.5618000000000001                -1.76709
    41   2                -20.9788     -6.1114300000000004      17.871600000000001
    42   4     -20.495100000000001     -5.2198700000000002      17.424800000000001
    43   4                -20.5701     -7.0906700000000003      17.584099999999999
    44   7                -22.4085     -6.1045299999999996      17.598299999999998
    45   2     -23.053699999999999     -5.6290899999999997      18.636700000000001
    46   7     -24.268000000000001     -5.4946099999999998      18.659800000000001
    47   7     -22.278099999999998     -5.3022600000000004      19.672599999999999
    48   2                -20.9068     -5.8457699999999999      19.413699999999999
    49   4     -20.765599999999999     -6.7242499999999996      19.987200000000001
    50   4                -20.2319                 -4.9863      19.750900000000001
    51   2     -17.943300000000001      11.215299999999999      14.028499999999999
    52   4     -17.258700000000001                 11.6523      14.824299999999999
    53   4                -18.6678                 11.9329      13.610099999999999
    54   7     -18.709599999999998     -11.376300000000001                 14.8849
    55   2     -18.703199999999999                -12.5642                 14.1488
    56   7     -19.109200000000001                -13.6112      14.588100000000001
    57   7     -18.186800000000002                 9.20425                 12.9377
    58   2                -17.3277      10.391999999999999                 12.9602
    59   4     -17.344000000000001                 10.8636                 11.9421
    60   4     -16.229199999999999                 10.2483                 13.2448
    61   2                -19.6294                -1.59074      17.543500000000002
    62   4                -20.1416    -0.67152900000000004      17.287500000000001
    63   4     -20.033000000000001     -2.3105000000000002      16.828900000000001
    64   7     -20.087199999999999                -2.04515                 18.8537
    65   2                -19.0214     -2.3396300000000001      19.662099999999999
    66   7     -19.070499999999999     -2.7694700000000001      20.839400000000001
    67   7     -17.941800000000001     -2.2837200000000002                 18.9391
    68   2     -18.101099999999999                -1.46973                 17.7438
    69   4     -17.473400000000002                -1.82551                 16.9054
    70   4     -17.826599999999999    -0.43415300000000001      18.095600000000001
    71   2     -27.861699999999999      7.4190399999999999     -3.3729399999999998
    72   4                -27.3794      7.6301500000000004                -2.38618
    73   4     -27.045500000000001      7.6519300000000001     -4.0843100000000003
    74   7                -28.8674      8.5187500000000007     -3.5141499999999999
    75   2                 -29.994                -13.6585                -4.01478
    76   7     -31.028300000000002                -13.0921     -4.0383100000000001
    77   7     -29.787400000000002      6.5607899999999999     -4.3183600000000002
    78   2     -28.596699999999998      6.1303700000000001     -3.7054200000000002
    79   4     -27.959900000000001                 5.57064     -4.4113899999999999
    80   4     -28.655100000000001      5.4935400000000003     -2.7796500000000002
    81   2                -29.5792     -11.982100000000001      8.9457000000000004
    82   4     -30.670500000000001                -12.1096      8.8565400000000007
    83   4                -29.0764     -12.900700000000001      9.3121100000000006
    84   7     -29.171700000000001     -10.845700000000001      9.7899600000000007
    85   2     -29.057500000000001     -9.7578099999999992      8.9903300000000002
    86   7                -28.9055     -8.6285500000000006      9.4426500000000004
    87   7     -28.936399999999999     -10.135899999999999                 7.66974
    88   2     -29.131499999999999     -11.607900000000001      7.6123399999999997
    89   4     -28.164300000000001                -11.9941      7.3017899999999996
    90   4     -29.807600000000001     -11.825699999999999      6.6774199999999997
    91   2     -18.991299999999999     -9.3422699999999992      21.912099999999999
    92   4     -19.038699999999999     -9.7372099999999993      20.854900000000001
    93   4     -19.768699999999999     -9.8665099999999999      22.514800000000001
    94   7     -19.228999999999999     -7.8719799999999998                 21.9194
    95   2     -18.032900000000001                -7.24254                 21.8689
    96   7     -17.927600000000002     -6.0533799999999998      21.560700000000001
    97   7     -16.994299999999999     -8.1330399999999994      22.121099999999998
    98   2     -17.621400000000001     -9.4195799999999998      22.553899999999999
    99   4     -17.633700000000001     -9.4067399999999992      23.631599999999999
   100   4     -16.904499999999999                -10.1487      22.172499999999999
   101   2     -20.122199999999999     -5.3868799999999997      8.4261999999999997
   102   4     -19.660499999999999     -6.2762700000000002      8.8207100000000001
   103   4                -21.0397     -5.6202199999999998      7.8182099999999997
   104   7     -19.211099999999998     -4.5985699999999996      7.5765799999999999
   105   2     -19.457000000000001                -3.29338      7.6355399999999998
   106   7     -18.932500000000001     -2.4925999999999999      6.8467900000000004
   107   7                -20.2684                -2.94686      8.6447800000000008
   108   2     -20.561199999999999     -4.2645499999999998      9.4581900000000001
   109   4     -21.599499999999999                 -4.4173      9.6234199999999994
   110   4     -19.798200000000001     -4.1169200000000004      10.259600000000001
   111   2     -24.790400000000002                 6.03369     -5.5418900000000004
   112   4     -24.447900000000001      6.9365699999999997                 15.6518
   113   4     -25.873899999999999      6.0325699999999998     -5.6320899999999998
   114   7                -24.5093      5.9373699999999996     -4.1445699999999999
   115   2     -23.337199999999999      5.1911399999999999     -3.9013599999999999
   116   7     -22.604800000000001      5.3792299999999997     -2.9152900000000002
   117   7     -23.049900000000001      4.5490399999999998     -5.0914700000000002
   118   2                -24.1035      4.7222799999999996     -6.0477100000000004
   119   4     -24.823899999999998      3.8713600000000001     -5.9482600000000003
   120   4     -23.601700000000001      4.6897200000000003      14.552199999999999
   121   2                -38.3767                -14.0021                 22.4559
   122   4     -39.240000000000002                -14.0473      23.052299999999999
   123   4     -37.480600000000003                -13.6561                 22.9604
   124   7                -38.8001                -12.8843                 21.4846
   125   2     -38.210700000000003     -13.188700000000001      20.256799999999998
   126   7     -38.105499999999999                 -12.417                   19.27
   127   7     -37.721299999999999                -14.4062      20.268899999999999
   128   2     -38.124699999999997     -15.139099999999999      21.512699999999999
   129   4     -37.293300000000002     -15.762499999999999                 21.7697
   130   4     -39.077800000000003                -15.6899      21.240500000000001
   131   2                -15.5855     -8.6862200000000005                 17.8217
   132   4                -14.9976     -8.0536899999999996      17.101299999999998
   133   4                -14.8811     -9.4913799999999995      18.175699999999999
   134   7     -16.754999999999999     -9.2763100000000005      17.151800000000001
   135   2     -17.883600000000001     -8.8861399999999993      17.853100000000001
   136   7     -19.035499999999999     -9.2446699999999993      17.605399999999999
   137   7     -17.607900000000001     -7.9764999999999997      18.853100000000001
   138   2     -16.171500000000002     -7.8535300000000001      18.956600000000002
   139   4     -15.864100000000001     -8.3476400000000002                  19.843
   140   4     -15.943300000000001     -6.8124700000000002                 18.9102
   141   2     -9.3215000000000003                -3.48047      4.5771800000000002
   142   4                -8.66723     -3.8701400000000001      3.8151999999999999
   143   4     -31.349900000000002     -2.5725199999999999      4.1920299999999999
   144   7     -30.052800000000001     -3.0543399999999998      5.7388399999999997
   145   2     -30.114699999999999     -3.9269500000000002      6.7321299999999997
   146   7     -29.441700000000001     -4.0140099999999999      7.7715199999999998
   147   7     -9.4477700000000002     -4.9242999999999997                 6.32796
   148   2     -10.270799999999999     -4.4740799999999998      5.0988800000000003
   149   4                -11.2784     -4.1506699999999999      5.5428300000000004
   150   4     -10.393800000000001     -5.3624599999999996      4.4289300000000003
   151   2     -25.987500000000001                -12.6365                 12.2555
   152   4                -26.3202     -13.341699999999999                 11.4656
   153   4     -24.876300000000001                -12.4185                 12.1747
   154   7                 -26.259                -13.2188      13.566599999999999
   155   2     -27.389500000000002                -12.6364      14.075200000000001
   156   7                -27.9314     -13.048999999999999                 15.0999
   157   7     -27.907299999999999                -11.6251      13.279500000000001
   158   2                -26.8992                -11.3765                 12.2813
   159   4     -26.327000000000002      11.119899999999999                 12.4902
   160   4                -27.4133      10.324400000000001      11.322800000000001
   161   2     -35.935400000000001     -3.8806099999999999      19.083200000000001
   162   4     -35.092199999999998     -4.3969699999999996      18.745799999999999
   163   4     -36.670400000000001     -3.8588399999999998                 18.2499
   164   7     -35.567999999999998     -2.4868999999999999                 19.2425
   165   2     -36.027500000000003                -2.02617      20.449300000000001
   166   7     -14.541600000000001    -0.83644600000000002                 20.7469
   167   7     -36.491100000000003     -3.0809299999999999      21.205300000000001
   168   2     -36.465899999999998     -4.2912600000000003      20.430099999999999
   169   4     -37.552500000000002                -4.60154      20.431000000000001
   170   4     -35.766500000000001     -5.0334199999999996      20.878900000000002
   171   2                 -12.071     -6.5142499999999997                 15.0952
   172   4     -13.047499999999999     -6.8284200000000004      15.427899999999999
   173   4     -11.212999999999999     -7.1306399999999996                 15.2235
   174   7                -11.6692     -5.2957299999999998                 15.8939
   175   2                 -12.278     -4.2271000000000001                 15.3429
   176   7     -12.451599999999999     -3.1993800000000001                 15.9457
   177   7                -12.6267                -4.51173      14.074999999999999
   178   2     -12.279500000000001                -5.87425      13.736000000000001
   179   4     -11.414400000000001     -5.8801100000000002                 13.0654
   180   4                -13.1082     -6.2375299999999996      13.142200000000001
   181   2     -22.208100000000002                -12.7149                 5.80661
   182   4     -23.055499999999999      9.2773699999999995                 5.18642
   183   4     -22.729399999999998     -13.059799999999999      6.6973399999999996
   184   7     -21.270499999999998      9.9001599999999996      6.3191199999999998
   185   2                -20.0625     -12.349500000000001      6.5165600000000001
   186   7     -19.123799999999999     -11.869899999999999      7.1316499999999996
   187   7     -20.116399999999999                -13.6762      5.9666800000000002
   188   2     -21.321000000000002                -13.7697      5.1553500000000003
   189   4     -21.789200000000001                 -14.811      5.2428600000000003
   190   4                -21.0596     -13.507099999999999      25.704899999999999
   191   2                -24.3399               -0.864707      18.111899999999999
   192   4     -23.518599999999999    -0.16233600000000001      18.300699999999999
   193   4     -24.621700000000001     -1.0177700000000001      17.004100000000001
   194   7                -25.4496    -0.23691200000000001      18.857299999999999
   195   2     -26.142700000000001     -1.2163200000000001                 19.4985
   196   7     -27.204999999999998                -1.01854      20.102599999999999
   197   7                -25.5306                -2.43614      19.319299999999998
   198   2                -24.1417     -2.1985100000000002                 18.7773
   199   4                -23.6815     -2.9427699999999999                 18.0641
   200   4                -23.4419                 -2.1898      19.625599999999999
   201   2                -21.7851     -4.9094899999999999      23.104299999999999
   202   4                 -21.471     -4.4015199999999997      24.017800000000001
   203   4     -20.956099999999999     -5.1443500000000002                 22.4756
   204   7     -22.696999999999999     -4.0155700000000003      22.394300000000001
   205   2     -23.884699999999999                -4.73935      22.145800000000001
   206   7                 -24.849     -4.1626599999999998      21.670400000000001
   207   7     -23.816099999999999     -6.0062199999999999      1.0132099999999999
   208   2     -22.664100000000001     -6.1840299999999999                 1.85571
   209   4                -22.2485     -7.1306700000000003                 1.75589
   210   4     -22.918099999999999     -6.1948299999999996                  2.9615
   211   2     -10.286199999999999     -6.9589400000000001      19.801200000000001
   212   4     -9.6088100000000001     -7.8124799999999999                 19.5688
   213   4     -9.9045100000000001     -6.2857099999999999      20.553999999999998
   214   7     -11.470800000000001     -7.6113900000000001      20.230599999999999
   215   2     -12.256500000000001     -7.6749599999999996      19.063199999999998
   216   7                -13.2903     -8.3240499999999997      19.068100000000001
   217   7     -11.867900000000001     -6.8606400000000001     -3.4853800000000001
   218   2     -10.643000000000001     -6.1989400000000003     -2.9905599999999999
   219   4     -32.473500000000001     -5.1821799999999998     -2.5655700000000001
   220   4     -9.9480000000000004     -6.1679500000000003     -3.8467600000000002
   221   2     -21.616299999999999                 11.8177                 13.8786
   222   4     -21.329599999999999                 12.7576      13.274699999999999
   223   4     -20.921099999999999                 11.0395      13.622199999999999
   224   7     -22.951899999999998      11.445499999999999      13.428900000000001
   225   2     -23.832799999999999      11.527900000000001      14.446099999999999
   226   7     -25.018899999999999                 11.3209                  14.413
   227   7     -23.252800000000001                 12.0055                 15.5867
   228   2                -21.8352      11.979100000000001                 15.3605
   229   4     -21.377500000000001                 11.1608      15.916399999999999
   230   4     -21.491599999999998                  12.881      15.933400000000001
   231   2     -36.526600000000002      7.9213100000000001      17.084900000000001
   232   4     -36.144799999999996      8.9577100000000005      17.283899999999999
   233   4     -36.424700000000001                 7.35806      18.023700000000002
   234   7                -35.6736      7.3493599999999999      16.043900000000001
   235   2     -36.412300000000002      7.2296500000000004                 14.9177
   236   7     -14.515499999999999                 6.84382                 13.8535
   237   7     -37.689799999999998      7.7878999999999996                 15.1007
   238   2     -37.885300000000001      7.7339200000000003      16.521999999999998
   239   4     -38.392400000000002      6.8169199999999996      16.796700000000001
   240   4     -38.628799999999998      8.5144599999999997                  16.738
   241   2     -33.441600000000001     -8.0275700000000008      4.9902300000000004
   242   4                -33.7532     -7.2656499999999999      5.6985000000000001
   243   4     -34.144399999999997     -8.1292500000000008      4.1541199999999998
   244   7     -33.509999999999998     -9.3071800000000007      5.7085900000000001
   245   2     -32.508499999999998                -10.0944                 5.19374
   246   7                -32.3752     -11.282400000000001                 5.33908
   247   7                -31.5977     -9.3442799999999995      4.5461999999999998
   248   2     -31.958600000000001     -7.9339300000000001      4.5541600000000004
   249   4     -31.764299999999999     -7.4700800000000003      3.5680499999999999
   250   4                -31.3218                -7.58066      5.3396600000000003
   251   2     -23.671700000000001     -7.3216900000000003      10.615600000000001
   252   4     -23.144300000000001                -6.75427                 11.3226
   253   4     -22.988299999999999     -7.7871699999999997      9.8861000000000008
   254   7     -24.560700000000001     -6.4109699999999998      9.8251500000000007
   255   2                -25.8628     -6.7362099999999998      10.105700000000001
   256   7     -26.869599999999998     -6.2191799999999997                 9.70655
   257   7     -26.040500000000002     -7.6967100000000004                 11.0632
   258   2     -24.711400000000001     -8.2743099999999998      11.289199999999999
   259   4     -24.802800000000001                -9.35168      10.898199999999999
   260   4     -24.554500000000001                -8.39086                 12.4024
   261   2     -25.296700000000001                 10.1897      17.827300000000001
   262   4     -24.762499999999999      9.9859399999999994      16.905200000000001
   263   4                -26.3794                 10.0406                 17.8111
   264   7     -25.108499999999999                 11.6334                 18.0962
   265   2                -24.2026                 11.7735      19.095099999999999
   266   7     -23.773099999999999                  12.859      19.469899999999999
   267   7     -23.907599999999999                  10.584                 19.6676
   268   2     -24.629200000000001      9.5329300000000003                 19.0015
   269   4     -25.375299999999999      9.2889800000000005      19.761199999999999
   270   4     -23.937000000000001      8.6812000000000005      18.924800000000001
   271   2                -30.1615     -8.5011899999999994                 12.4039
   272   4     -30.497599999999998     -8.5219900000000006      11.389099999999999
   273   4     -30.294599999999999     -9.4664999999999999      12.883800000000001
   274   7     -31.062200000000001     -7.4964199999999996                 13.1279
   275   2                -30.3034     -6.4186500000000004                 13.4458
   276   7     -30.652200000000001                -5.54244                 14.1999
   277   7     -29.072299999999998     -6.4799699999999998                  12.887
   278   2     -28.823899999999998     -7.9530099999999999                 12.7118
   279   4     -28.401199999999999     -8.2746600000000008                 13.6675
   280   4                -28.0794     -8.1503999999999994                 11.9274
   281   2     -35.362400000000001      10.252700000000001      9.3100000000000005
   282   4     -35.773699999999998      9.9209899999999998                 10.2988
   283   4     -36.234699999999997                 10.5364      8.6376000000000008
   284   7     -34.705500000000001                -12.4274      8.6874800000000008
   285   2     -33.378999999999998                -12.3474      8.8576099999999993
   286   7     -32.572699999999998                -13.1844      8.5859100000000002
   287   7                -33.0062     -11.159800000000001      9.3738200000000003
   288   2     -34.216999999999999                 11.2751      9.3769899999999993
   289   4                -34.2014                 12.0329      8.6280800000000006
   290   4     -34.215600000000002      11.654500000000001                 10.4237
   291   2     -26.515699999999999      7.4936800000000003      5.4513100000000003
   292   4                -26.8581      7.4425999999999997      6.4684499999999998
   293   4                -26.7273      8.4596699999999991      4.9436799999999996
   294   7     -27.214600000000001      6.4928999999999997      4.6645000000000003
   295   2     -26.501000000000001      5.2747999999999999      4.7398600000000002
   296   7     -26.873200000000001                  4.1631      4.4311499999999997
   297   7     -25.153700000000001      5.5625600000000004      5.0793200000000001
   298   2                -25.0533      7.0111800000000004      5.3144499999999999
   299   4     -24.497499999999999      7.4598800000000001                 4.52393
   300   4     -24.585699999999999      7.1126800000000001                 6.28132
   301   2                -24.8626                 11.3011      6.6340000000000003
   302   4                -25.2362      11.646599999999999      5.6737399999999996
   303   4     -23.740100000000002      11.287599999999999      6.5928300000000002
   304   7     -25.391500000000001      9.9619099999999996      6.9419700000000004
   305   2     -25.625699999999998      9.9629600000000007      8.3204499999999992
   306   7     -25.943100000000001      8.9691799999999997      8.9269800000000004
   307   7     -25.527200000000001      11.209300000000001      8.8600100000000008
   308   2     -25.469799999999999      12.145099999999999      7.7413400000000001
   309   4                -24.8935      12.983000000000001      8.0975599999999996
   310   4                -26.4602      12.493499999999999      7.6132200000000001
   311   2                 -20.637     -10.791700000000001      9.7052399999999999
   312   4                -21.4575                -11.4694      9.6491900000000008
   313   4                -19.6936     -11.423400000000001      9.8541799999999995
   314   7     -20.713799999999999                -10.0351                 11.0357
   315   2                -20.5078     -8.6791099999999997      10.799200000000001
   316   7     -20.367000000000001     -7.8546199999999997      11.661099999999999
   317   7     -20.569900000000001     -8.4206299999999992      9.4548400000000008
   318   2     -20.523700000000002     -9.6035900000000005      8.6498399999999993
   319   4                -19.5276     -9.6730300000000007      8.2503799999999998
   320   4     -21.268799999999999     -9.5754999999999999                 7.81379
   321   2     -19.719100000000001      3.6808000000000001     -4.1957899999999997
   322   4     -20.689299999999999      3.3608500000000001     -3.8198799999999999
   323   4     -19.877700000000001                 4.72166     -4.5713200000000001
   324   7     -40.980400000000003      2.9293499999999999     -5.4935799999999997
   325   2     -40.168199999999999      1.9265600000000001     -5.0641800000000003
   326   7     -39.987200000000001     0.89595199999999997     -5.6620699999999999
   327   7                -39.6447      2.1224099999999999     -3.8260999999999998
   328   2                -40.1325      3.4365299999999999     -3.3191600000000001
   329   4     -39.341200000000001      4.1399499999999998                -3.42001
   330   4                -40.4651      3.3051599999999999     -2.2746300000000002
   331   2     -23.318200000000001                 1.13019      15.266500000000001
   332   4     -22.980799999999999                 2.12412      15.733700000000001
   333   4                -24.2422     0.77663300000000002      15.626799999999999
   334   7     -22.308499999999999     0.15684500000000001      15.789899999999999
   335   2     -21.520800000000001               -0.136797                 14.7111
   336   7     -20.520700000000001    -0.77967600000000004      14.707800000000001
   337   7     -21.940300000000001     0.52990099999999996                 13.5733
   338   2                -23.1568      1.2595799999999999      13.780099999999999
   339   4     -23.879000000000001                0.724078      13.116300000000001
   340   4     -22.984400000000001                  2.2563      13.402200000000001
   341   2                -28.8325      1.7940199999999999      11.766500000000001
   342   4     -28.731400000000001      2.6885400000000002      11.147500000000001
   343   4     -28.401599999999998     0.85938700000000001      11.180400000000001
   344   7                -30.3293                 1.67289      11.805999999999999
   345   2     -30.717600000000001      1.4939499999999999      13.086399999999999
   346   7                -31.8504                 1.31582      13.393599999999999
   347   7                -29.6694                 1.46597      13.969799999999999
   348   2     -28.406700000000001      1.7659199999999999                  13.263
   349   4                -27.7576     0.88320600000000005      13.438599999999999
   350   4                -28.0029      2.6979299999999999                 13.6557
   351   2     -23.698699999999999                -10.3528      1.1008100000000001
   352   4     -23.421900000000001     -9.4961199999999995                0.512382
   353   4     -23.695799999999998                -11.2989     0.57711800000000002
   354   7                -25.0383     -9.9804200000000005      1.5905800000000001
   355   2     -25.233699999999999                -10.3139      2.8822899999999998
   356   7     -26.231100000000001     -10.135400000000001      3.5170599999999999
   357   7     -24.043199999999999                -10.8744      3.3070499999999998
   358   2                -22.9392     -10.425000000000001      2.4154599999999999
   359   4     -22.201000000000001     -11.248200000000001      2.5235400000000001