(written by ASE)

888 atoms
9 atom types

0.0      21.553999999999998  xlo xhi
0.0      21.553999999999998  ylo yhi
0.0                  21.544  zlo zhi

Atoms # atomic

     1   2     -32.746499999999997                -13.4642      18.385300000000001
     2   4     -32.836500000000001     -14.218999999999999      17.573899999999998
     3   4     -33.509700000000002                -12.7546                 18.2256
     4   7     -31.359300000000001     -12.917199999999999                 18.2803
     5   2                -30.7563     -13.014900000000001      19.484300000000001
     6   7     -29.597300000000001     -12.662800000000001                 19.6678
     7   7     -31.536999999999999     -13.608599999999999      20.431100000000001
     8   2                -32.8217     -13.939399999999999      19.841100000000001
     9   4     -33.613700000000001     -13.432399999999999      20.340900000000001
    10   4     -32.992600000000003                -15.0265      19.961400000000001
    11   2     -26.095099999999999     -6.7386999999999997      5.2577199999999999
    12   4     -25.404299999999999     -7.4942900000000003      5.0220799999999999
    13   4     -25.622299999999999                 15.7524      5.5150499999999996
    14   7     -26.965800000000002     -7.1545300000000003      6.3576800000000002
    15   2                -28.1005     -7.6129499999999997      5.7588100000000004
    16   7     -28.856200000000001                -8.30776      6.4232500000000003
    17   7     -28.227699999999999                -7.34781      4.4597100000000003
    18   2     -27.028300000000002     -6.5952400000000004      4.0468200000000003
    19   4     -27.359500000000001     -5.5714199999999998      3.8174899999999998
    20   4     -26.640899999999998     -7.0750900000000003      3.1303200000000002
    21   2     -26.865300000000001                -1.60999      2.8179099999999999
    22   4                -25.9861                -1.47123                 3.45296
    23   4     -26.526599999999998     -1.7400599999999999      1.7926500000000001
    24   7                -27.6646               -0.391843                 2.99498
    25   2     -28.795400000000001    -0.61850700000000003      3.6699199999999998
    26   7                -29.5701     0.31981199999999999      3.9416500000000001
    27   7                -28.9575     -1.8919699999999999      3.9106100000000001
    28   2     -27.851700000000001     -2.6956600000000002      3.3015400000000001
    29   4     -28.299299999999999                 -3.2462      2.5038399999999998
    30   4     -27.522099999999998     -3.3573599999999999      4.1364099999999997
    31   2     -15.274800000000001      2.9799500000000001     -1.5145500000000001
    32   4                -15.8436      3.1470400000000001               -0.612456
    33   4                -14.4137      3.6677300000000002                -1.41249
    34   7                -16.0075      3.4242300000000001                -2.70553
    35   2                -15.7219      2.5649799999999998     -3.7823099999999998
    36   7     -15.968999999999999      2.7870200000000001     -4.9307800000000004
    37   7                -15.1564                 1.42499                -3.32755
    38   2                -14.9536                 1.49675                 -1.8592
    39   4                -13.9138                 1.18693                 -1.7039
    40   4     -15.511799999999999     0.68156899999999998     -1.3327100000000001
    41   2     -21.745100000000001     -5.7584200000000001      17.298500000000001
    42   4     -21.045200000000001     -5.0370799999999996      17.752800000000001
    43   4     -21.437799999999999     -5.7934299999999999      16.212700000000002
    44   7     -23.109000000000002     -5.4681899999999999      17.395499999999998
    45   2     -23.724900000000002     -6.4085000000000001      18.201799999999999
    46   7                -24.9407     -6.3719000000000001      18.430599999999998
    47   7     -22.916799999999999     -7.2660200000000001                 18.7987
    48   2                -21.6358     -7.1206699999999996      18.116700000000002
    49   4     -21.386600000000001     -7.9933699999999996      17.504300000000001
    50   4     -20.891200000000001                -7.13103      18.924900000000001
    51   2                -16.2454                 11.6464                 13.2629
    52   4     -16.352599999999999      12.380599999999999      12.380100000000001
    53   4     -15.495100000000001      11.768599999999999      14.032999999999999
    54   7     -15.853300000000001     -11.170999999999999                 12.7058
    55   2                -16.9665                -11.9404      12.466900000000001
    56   7     -16.953800000000001     -12.938599999999999                 11.8033
    57   7     -18.115300000000001                  10.121                 13.0814
    58   2                -17.6251                 11.1675                 13.9328
    59   4     -17.431100000000001                 10.8177                 14.9459
    60   4                -18.3964      11.958500000000001      13.976000000000001
    61   2     -18.551100000000002     -2.8605499999999999      19.067499999999999
    62   4     -18.346599999999999     -3.7727200000000001                 18.5123
    63   4     -17.741299999999999                -2.65557      19.796800000000001
    64   7                -19.8475     -3.0295700000000001      19.915900000000001
    65   2     -20.819500000000001                -2.63795                 19.0961
    66   7     -21.991099999999999     -2.9512900000000002      19.283200000000001
    67   7     -20.432700000000001     -1.8333999999999999      18.046600000000002
    68   2     -18.960899999999999     -1.6968700000000001      18.152000000000001
    69   4     -18.926500000000001               -0.724078      18.636500000000002
    70   4     -18.471499999999999                -1.67397      17.236000000000001
    71   2                -28.6648      5.7314999999999996    -0.51261100000000004
    72   4     -27.928999999999998      5.1243600000000002                0.115692
    73   4     -29.126999999999999      6.5505199999999997    0.018478000000000001
    74   7     -29.604700000000001      4.8956200000000001                -1.17235
    75   2     -29.737300000000001     -16.123100000000001     -2.4610500000000002
    76   7     -30.577300000000001     -16.429600000000001     -3.2610199999999998
    77   7                -28.7498      6.3035800000000002                -2.72695
    78   2     -27.778300000000002      6.3602999999999996     -1.6046800000000001
    79   4     -27.492699999999999      7.4518700000000004                  -1.401
    80   4                -26.8691      5.7676499999999997     -1.8509500000000001
    81   2     -29.926300000000001     -12.844099999999999      7.9851799999999997
    82   4                -29.0366     -13.226100000000001      7.4672900000000002
    83   4                -30.8078     -13.019399999999999      7.3361400000000003
    84   7                -29.8567                -11.3964      8.3518399999999993
    85   2                -29.3657     -11.348699999999999      9.5858500000000006
    86   7     -29.047999999999998     -10.292299999999999                 10.1251
    87   7     -29.411799999999999                -12.5181      10.274800000000001
    88   2     -30.073599999999999                -13.4857      9.3702799999999993
    89   4     -31.111599999999999     -13.762700000000001      9.6109200000000001
    90   4                -29.5139                -14.3718      9.4679199999999994
    91   2                -17.1355     -8.1893200000000004      22.277799999999999
    92   4     -16.815100000000001     -8.8007600000000004      21.356999999999999
    93   4     -16.811599999999999     -8.6703100000000006                  23.192
    94   7     -18.573699999999999     -8.0701699999999992                 22.2423
    95   2     -18.965900000000001     -6.8467900000000004      21.760100000000001
    96   7     -20.098500000000001     -6.5126200000000001      21.566299999999998
    97   7     -17.908999999999999     -6.0347499999999998      21.457999999999998
    98   2     -16.723500000000001     -6.7219100000000003      22.028700000000001
    99   4     -16.488399999999999                -6.21523                 22.9773
   100   4                 -15.929     -6.5553400000000002                 21.2547
   101   2                -20.4832     -4.4602399999999998                 10.5275
   102   4     -20.376000000000001                -4.10738      11.532500000000001
   103   4     -20.819299999999998     -5.5295399999999999                 10.6683
   104   7                -19.1495     -4.5249899999999998      9.9567300000000003
   105   2     -19.033300000000001     -3.5112999999999999                 9.05471
   106   7     -17.947800000000001     -3.1755200000000001      8.5952900000000003
   107   7     -20.216999999999999     -2.9519600000000001      8.7490799999999993
   108   2     -21.238099999999999                -3.45072      9.6026399999999992
   109   4     -22.043700000000001     -3.8480400000000001      8.8961400000000008
   110   4     -21.537700000000001                -2.61578      10.239699999999999
   111   2                -24.3825      7.3911600000000002                -5.50373
   112   4     -24.124700000000001      7.0444100000000001      15.034599999999999
   113   4     -24.325600000000001      8.4564500000000002     -5.3587800000000003
   114   7                -23.3371      6.7493999999999996     -4.6451599999999997
   115   2     -23.870999999999999      6.6167800000000003     -3.4265699999999999
   116   7     -23.247299999999999      6.4724000000000004                -2.37981
   117   7     -25.279800000000002      6.6928799999999997     -3.5010400000000002
   118   2     -25.700099999999999      6.9525199999999998     -4.9015599999999999
   119   4     -26.502600000000001                 7.74383     -4.8855899999999997
   120   4     -26.127199999999998                 5.95688      16.404199999999999
   121   2     -37.073500000000003                -12.3353                 23.0001
   122   4     -38.186900000000001                -12.1342                 22.9648
   123   4     -36.683399999999999                -12.5207      24.010300000000001
   124   7     -36.284199999999998     -11.135300000000001                  22.538
   125   2     -36.023600000000002                -11.3001                 21.1633
   126   7                -35.5289                -10.5327                 20.4026
   127   7     -36.469799999999999                -12.5601      20.786300000000001
   128   2     -36.689599999999999     -13.363899999999999                 21.9343
   129   4     -35.746299999999998                -13.8832      22.279900000000001
   130   4     -37.495800000000003     -14.139099999999999      21.694199999999999
   131   2     -16.307600000000001     -7.3882500000000002                 18.8888
   132   4     -15.898300000000001     -8.0323600000000006      19.695499999999999
   133   4     -16.236599999999999     -6.3293699999999999                 19.0731
   134   7     -17.706199999999999     -7.6865800000000002      18.576599999999999
   135   2     -17.916399999999999     -8.4825300000000006                  17.497
   136   7     -18.960100000000001     -8.9677100000000003                 17.0855
   137   7                -16.6677     -8.7233400000000003      16.889500000000002
   138   2     -15.663600000000001     -7.7961400000000003                 17.4636
   139   4                -15.4811     -6.9531700000000001      16.802199999999999
   140   4                -14.6701     -8.3002800000000008                 17.4664
   141   2     -10.186299999999999                -4.61294      5.3895400000000002
   142   4     -10.198499999999999                -3.99796      4.5063000000000004
   143   4     -32.846699999999998                -4.69998      5.6171800000000003
   144   7     -31.067599999999999     -3.8453400000000002      6.4678300000000002
   145   2     -30.208500000000001     -4.7834500000000002      7.0691800000000002
   146   7                -29.5336     -4.6475400000000002      8.0654800000000009
   147   7     -8.6611799999999999     -6.0009300000000003      6.4252099999999999
   148   2     -9.4041399999999999     -5.8912399999999998                 5.23299
   149   4     -9.9762599999999999     -6.8433900000000003      5.1663399999999999
   150   4     -8.5615500000000004     -5.7629099999999998      4.4325099999999997
   151   2                -26.3766     -12.123900000000001      12.386100000000001
   152   4                -26.4636                -11.2355                 13.0571
   153   4     -27.331499999999998                -12.3721      11.893599999999999
   154   7     -25.974399999999999                -13.2554                 13.2095
   155   2                -25.1084                -14.0085                 12.3948
   156   7                -24.8018                -15.1333      12.688800000000001
   157   7                -24.7544     -13.290100000000001      11.286799999999999
   158   2                -25.2149                -11.9589      11.478400000000001
   159   4     -25.392199999999999      9.9718400000000003                 10.5319
   160   4     -24.361699999999999                 10.1013      11.955299999999999
   161   2     -35.976799999999997                 -3.9573      18.810099999999998
   162   4     -36.082000000000001     -3.8507400000000001      17.760300000000001
   163   4                -36.0533     -4.9629899999999996      19.227900000000002
   164   7                -37.0717     -3.2265600000000001                 19.3935
   165   2     -36.584400000000002                -2.53837      20.465399999999999
   166   7     -15.682700000000001     -1.8481799999999999      21.253799999999998
   167   7     -35.281799999999997     -2.6690399999999999                 20.5459
   168   2                -34.7059     -3.3414299999999999      19.428799999999999
   169   4     -33.962299999999999     -3.9784199999999998      19.904399999999999
   170   4     -34.255099999999999     -2.6524399999999999                 18.6873
   171   2                 -11.618     -5.8106400000000002      14.031000000000001
   172   4                -11.0288     -6.7397400000000003                 13.9932
   173   4                -11.4811     -5.3307399999999996                 13.0809
   174   7     -11.109500000000001     -4.9199299999999999      15.041700000000001
   175   2                -12.1663     -4.3710300000000002      15.700200000000001
   176   7     -12.101100000000001     -3.3925800000000002      16.424399999999999
   177   7                -13.3117     -5.0374100000000004                  15.366
   178   2                 -13.093     -6.1730299999999998                 14.4672
   179   4                -13.7705     -6.0307500000000003                 13.5928
   180   4     -13.226699999999999     -7.0797400000000001                 15.0952
   181   2     -22.078800000000001     -11.094900000000001                  5.3956
   182   4     -22.776599999999998                 11.2715      5.5410399999999997
   183   4     -21.747699999999998     -11.531599999999999                  6.3815
   184   7                -20.7423      10.887499999999999      4.8728699999999998
   185   2     -20.694700000000001                -10.9208      3.4914399999999999
   186   7                -19.9893     -10.363799999999999                 2.70627
   187   7                -21.5092                -11.9693                 3.21583
   188   2     -22.398700000000002                -12.2342      4.4272299999999998
   189   4                -22.2605     -13.255599999999999      4.7892700000000001
   190   4                 -23.439     -12.155099999999999      25.563500000000001
   191   2     -24.422699999999999    -0.67452100000000004      18.488199999999999
   192   4                -23.4727               -0.202455      18.726099999999999
   193   4                 -25.067                 0.23598      18.298100000000002
   194   7     -25.018899999999999     -1.3376399999999999      19.682400000000001
   195   2     -25.668399999999998     -2.3896700000000002      19.229199999999999
   196   7                -26.2561     -3.1235200000000001      19.965299999999999
   197   7                 -25.477     -2.6580599999999999                 17.9755
   198   2                -24.4191     -1.8075600000000001                 17.4299
   199   4     -24.717700000000001     -1.5296799999999999                  16.395
   200   4     -23.482299999999999     -2.3420700000000001      17.542000000000002
   201   2     -23.285799999999998     -2.6923599999999999                 22.4511
   202   4     -22.867000000000001                -2.09775                 23.2912
   203   4                -23.5747     -1.9812700000000001      21.655899999999999
   204   7     -24.518799999999999     -3.2978200000000002                 22.9237
   205   2     -24.674600000000002     -4.4752799999999997                 22.2316
   206   7     -25.629100000000001     -5.2161799999999996      22.180800000000001
   207   7     -23.566199999999998     -4.7512999999999996   -0.017415699999999999
   208   2     -22.470099999999999                -3.87818     0.46400799999999998
   209   4                -21.8994     -3.7216499999999999    -0.48025099999999998
   210   4                -21.8782     -4.4735899999999997                 1.14337
   211   2     -10.810700000000001     -8.4524100000000004                 19.2256
   212   4                -10.9709     -8.9275000000000002      18.260899999999999
   213   4     -10.090999999999999     -8.8790300000000002                 19.8842
   214   7                -12.0793                -8.34558      19.927600000000002
   215   2                 -12.673                -7.12087      19.771799999999999
   216   7     -13.835000000000001     -6.8795599999999997      20.121400000000001
   217   7                -11.8992     -6.2977600000000002     -2.5509499999999998
   218   2                -10.5107     -6.8807200000000002     -2.5858099999999999
   219   4                 -31.567     -6.4509100000000004     -1.7417400000000001
   220   4     -10.045999999999999     -6.5776199999999996                -3.54766
   221   2     -22.334599999999998                 13.2128                 14.6395
   222   4     -22.099399999999999                 14.0807                 14.0524
   223   4                -22.6128                 13.5708                 15.6455
   224   7     -21.127099999999999                 12.5107      14.839700000000001
   225   2     -21.274899999999999      11.261900000000001                  14.397
   226   7     -20.487500000000001      10.352499999999999                 14.6189
   227   7     -22.482099999999999                 11.0692                 13.7681
   228   2                -23.3263                 12.1938                 14.1412
   229   4     -24.055399999999999      11.854200000000001                 14.9017
   230   4     -23.900300000000001                 12.5161      13.270099999999999
   231   2     -37.067399999999999      8.4546500000000009      17.115400000000001
   232   4                 -37.058      9.5546600000000002      17.104700000000001
   233   4     -37.375300000000003      8.1283799999999999      18.089200000000002
   234   7     -35.756300000000003      7.9619099999999996      16.870999999999999
   235   2     -35.808900000000001      7.2467699999999997                 15.6714
   236   7     -13.306900000000001                 6.75969                 15.0375
   237   7     -37.101900000000001      6.9387499999999998                 15.2631
   238   2     -38.028100000000002      7.8655400000000002      15.980600000000001
   239   4     -38.818800000000003      7.2361500000000003                  16.413
   240   4     -38.223199999999999      8.6683800000000009                 15.2585
   241   2     -33.937199999999997     -9.4269099999999995      6.7590399999999997
   242   4                -34.6128     -8.6482100000000006      6.3078799999999999
   243   4     -34.450600000000001                -10.4253      6.8833500000000001
   244   7                -33.5351     -8.9579799999999992      8.1016700000000004
   245   2     -32.215400000000002     -8.8406800000000008      8.1761499999999998
   246   7                -31.5931     -8.5729799999999994      9.2020199999999992
   247   7     -31.611499999999999     -8.9664599999999997      7.0243399999999996
   248   2     -32.587400000000002     -9.5457699999999992      6.0564799999999996
   249   4     -32.248699999999999                -10.5532      5.8654500000000001
   250   4     -32.598399999999998     -8.9772099999999995      5.1338699999999999
   251   2                -24.7789     -5.6895699999999998      10.168900000000001
   252   4     -24.885899999999999     -4.7597699999999996                  10.782
   253   4     -24.257000000000001     -5.4951400000000001                 9.15198
   254   7     -26.162400000000002     -6.0561100000000003      9.8070500000000003
   255   2     -26.322800000000001     -7.3349700000000002      10.210000000000001
   256   7     -27.358499999999999     -7.9772600000000002      9.9977099999999997
   257   7                -25.1449     -7.8686499999999997                 10.6396
   258   2     -24.252800000000001     -6.8264199999999997                  10.981
   259   4     -23.221699999999998     -7.2699600000000002                 10.7089
   260   4                -24.2714     -6.6418600000000003                 12.0524
   261   2                -25.2196                  11.057      20.473800000000001
   262   4     -26.158000000000001      10.607799999999999      20.165600000000001
   263   4     -25.281300000000002                 11.7067      21.372399999999999
   264   7     -24.732700000000001      11.997199999999999      19.297499999999999
   265   2     -24.026700000000002      11.234500000000001      18.488800000000001
   266   7                -23.6081      11.586499999999999      17.412600000000001
   267   7     -23.926300000000001      9.9641500000000001                 18.9345
   268   2     -24.205500000000001                 9.98733      20.359100000000002
   269   4     -23.299900000000001                 10.0852                 20.9267
   270   4                -24.6769      9.0616500000000002      20.647500000000001
   271   2                -29.9724     -6.7869900000000003                 12.3209
   272   4     -29.168500000000002     -6.3658599999999996                 11.6668
   273   4     -30.945699999999999     -6.8499800000000004                 11.8569
   274   7                -30.0732     -5.9091899999999997      13.526400000000001
   275   2                -29.5702     -6.6069399999999998      14.599399999999999
   276   7                -29.5837     -6.1663500000000004                 15.7502
   277   7     -29.097200000000001     -7.8305199999999999                 14.3119
   278   2     -29.636900000000001     -8.1245399999999997                 12.9975
   279   4     -30.488600000000002     -8.8151899999999994      13.081899999999999
   280   4                -28.8904     -8.6004799999999992                 12.4679
   281   2     -33.346899999999998      11.008800000000001                 11.2195
   282   4     -33.987299999999998      11.736700000000001      10.831200000000001
   283   4     -32.476500000000001      11.370100000000001                 11.7422
   284   7     -32.748699999999999                -11.0893      9.9689399999999999
   285   2     -33.548200000000001                -11.9612      9.3814100000000007
   286   7                 -33.436     -12.482699999999999      8.3288499999999992
   287   7     -34.514400000000002                -12.3188                 10.2866
   288   2     -34.194299999999998      9.7592999999999996      11.561299999999999
   289   4     -33.608899999999998      8.9320900000000005      12.142899999999999
   290   4     -35.093499999999999      10.019600000000001      12.144500000000001
   291   2     -25.694900000000001                 5.57118      5.5259600000000004
   292   4     -25.444099999999999      5.6627400000000003      6.6051500000000001
   293   4     -25.823599999999999      6.5635399999999997      5.0822700000000003
   294   7     -27.043500000000002      4.9619299999999997      5.3674999999999997
   295   2     -26.906500000000001      4.0790100000000002      4.3561199999999998
   296   7                -27.8674      3.4673600000000002      3.8906900000000002
   297   7                -25.6722      3.8832100000000001                 3.87277
   298   2     -24.784800000000001                 4.64778      4.7289099999999999
   299   4                -23.9131                 5.06501                 4.14445
   300   4                 -24.198      3.8494100000000002                 5.23787
   301   2                -25.7502                 10.3597      5.3204000000000002
   302   4                -26.4815      10.871700000000001      4.6964300000000003
   303   4     -24.847899999999999                  10.147      4.8216200000000002
   304   7     -26.316700000000001      9.0721799999999995      5.7906899999999997
   305   2     -26.149799999999999      8.9551999999999996      7.1262800000000004
   306   7     -26.481100000000001      7.9849600000000001      7.7706299999999997
   307   7                -25.6282      10.081099999999999      7.6511199999999997
   308   2     -25.569199999999999      11.113099999999999      6.5949999999999998
   309   4     -24.585999999999999                 11.6226                 6.69909
   310   4     -26.434100000000001                  11.789      6.7621599999999997
   311   2                -20.6004                -11.1073                 9.47987
   312   4     -19.804200000000002                -11.4834      8.7279900000000001
   313   4     -21.561399999999999     -11.639699999999999      9.3720199999999991
   314   7     -20.849799999999998     -9.7404600000000006      9.2988800000000005
   315   2     -20.738600000000002     -9.0303000000000004                 10.4825
   316   7     -20.881799999999998     -7.7577499999999997                 10.5228
   317   7     -20.525700000000001     -9.8447800000000001      11.517799999999999
   318   2     -20.172499999999999     -11.186199999999999                 10.9831
   319   4     -20.775099999999998                -11.8962      11.673500000000001
   320   4     -19.088100000000001                -11.3089      11.023999999999999
   321   2     -19.760999999999999      4.2669800000000002     -4.5502900000000004
   322   4     -20.434000000000001      5.1153599999999999     -4.7470600000000003
   323   4                -18.7911                 4.74221     -4.4424000000000001
   324   7     -41.398600000000002      3.3538600000000001     -5.7504299999999997
   325   2     -41.144199999999998      2.0768399999999998     -5.2846299999999999
   326   7     -40.852600000000002      1.1146799999999999     -5.9920900000000001
   327   7                 -41.262                 2.10364     -3.9271600000000002
   328   2     -41.749499999999998      3.3816199999999998     -3.4500000000000002
   329   4     -41.268700000000003      3.5613600000000001                -2.47818
   330   4     -42.846200000000003      3.3508800000000001     -3.4267099999999999
   331   2                -24.8066      3.8195199999999998      14.730499999999999
   332   4                -25.9177      3.6659000000000002      14.634600000000001
   333   4     -24.503799999999998      4.8295000000000003                 14.8558
   334   7     -24.156199999999998                 3.29793                 13.4907
   335   2     -23.061699999999998      2.5735199999999998                 13.8156
   336   7     -22.282299999999999      2.1499199999999998                 12.9964
   337   7                -23.0184      2.3155600000000001      15.161199999999999
   338   2     -24.107399999999998      2.8856899999999999                 15.7743
   339   4                -23.7605                  3.3472      16.769200000000001
   340   4                -24.7212      2.1216499999999998                 16.2026
   341   2                -30.0672      2.6302400000000001      11.245900000000001
   342   4     -30.377199999999998      3.5802800000000001                 10.7104
   343   4     -29.344200000000001      2.0186999999999999      10.742699999999999
   344   7     -31.308399999999999                 1.75736                  11.315
   345   2     -31.964700000000001                 2.05159                 12.4481
   346   7                -33.0593      1.6063000000000001                 12.7403
   347   7                -31.1707      2.8103199999999999      13.301600000000001
   348   2     -29.819400000000002      2.8876300000000001                 12.7156
   349   4     -29.122599999999998      2.2307999999999999                 13.2376
   350   4     -29.601500000000001      3.9796100000000001                 12.8591
   351   2     -22.088200000000001     -8.1602700000000006                 1.59206
   352   4     -21.230899999999998     -8.7816700000000001      1.4615899999999999
   353   4     -21.931699999999999     -7.1756000000000002      2.0777700000000001
   354   7     -22.969799999999999     -8.9583600000000008      2.4384299999999999
   355   2     -24.281199999999998     -8.7871199999999998      2.0440399999999999
   356   7     -25.245200000000001     -9.0460200000000004      2.7481900000000001
   357   7     -24.303999999999998     -8.2100399999999993     0.75784799999999997
   358   2     -22.939699999999998     -8.0130099999999995                0.352321
   359   4                -22.8184     -6.9978400000000001              -0.0125229