(written by ASE)

915 atoms
9 atom types

0.0      21.712770568302616  xlo xhi
0.0      21.712770568302616  ylo yhi
0.0      21.712770568302616  zlo zhi

Atoms # atomic

     1   2      14.519399999999999      6.4696600000000002      5.0440199999999997
     2   2      13.702500000000001      5.1868100000000004      4.8940599999999996
     3   7      14.733000000000001      4.2065099999999997                 4.96122
     4   2      15.888299999999999      4.7912999999999997      4.4668400000000004
     5   7      16.839700000000001      4.1356299999999999                 4.10372
     6   7      15.781499999999999      6.1486799999999997      4.3708099999999996
     7   4                 14.6953      6.8414400000000004      6.0446900000000001
     8   4      14.050000000000001      7.2848499999999996      4.5161300000000004
     9   4      13.326000000000001      5.1503199999999998      3.8681700000000001
    10   4      12.969900000000001      5.0057299999999998      5.7096799999999996
    11   2                 3.49519                 11.8164      24.329599999999999
    12   2      3.7565200000000001                 12.6805      25.601800000000001
    13   7      3.7944599999999999                 11.6045                 26.6602
    14   2      3.3018399999999999      10.482799999999999                 26.1434
    15   7      3.2708699999999999      9.4111399999999996      26.715499999999999
    16   7      2.8699300000000001      10.638199999999999      24.862100000000002
    17   4      4.4948800000000002                 11.5449      23.979600000000001
    18   4      2.7743799999999998                 12.2118      23.572800000000001
    19   4      3.0234200000000002      13.463699999999999      25.825099999999999
    20   4      4.7651199999999996      13.139200000000001                  25.625
    21   2      3.5568399999999998      1.7484299999999999      16.352799999999998
    22   2      4.8451000000000004                 1.36517      15.617100000000001
    23   7      4.7633900000000002      1.6518699999999999                 14.2133
    24   2      3.4400400000000002      2.1130499999999999                  14.074
    25   7                 2.99525      2.5945800000000001      13.052099999999999
    26   7                 2.65448      1.8667400000000001                 15.1351
    27   4      3.5168400000000002      2.6939799999999998      16.819700000000001
    28   4      3.0562900000000002                    1.04      17.006499999999999
    29   4      5.1004399999999999     0.30484800000000001      15.690099999999999
    30   4      5.6861499999999996      2.0146899999999999      15.991899999999999
    31   2      11.532500000000001   -0.083459599999999995     -1.5694999999999999
    32   2                 10.4239     0.84030400000000005     -2.1118199999999998
    33   7                 11.1921      2.0355500000000002     -2.3207499999999999
    34   2                  12.176      2.0278700000000001     -1.3121799999999999
    35   7                 12.8751      3.0102099999999998                -1.09046
    36   7      12.319800000000001     0.82119799999999998    -0.75224400000000002
    37   4                 12.0717    -0.44488899999999998     -2.4514200000000002
    38   4                 11.2714    -0.87870000000000004    -0.88250899999999999
    39   4      9.6348800000000008     0.94396500000000005                -1.35212
    40   4                 10.1595     0.53559699999999999     -3.1092599999999999
    41   2      7.6338900000000001      5.2799500000000004      15.347899999999999
    42   2      7.3865699999999999      6.7590300000000001                 15.6203
    43   7      5.9170999999999996      6.8342099999999997                 15.9802
    44   2      5.4053100000000001      5.5622699999999998                 15.9572
    45   7      4.2981699999999998      5.2260799999999996      16.360700000000001
    46   7      6.3934300000000004      4.6702899999999996                 15.5343
    47   4      8.3223000000000003      4.8851599999999999      16.127500000000001
    48   4      8.0080600000000004      5.0390499999999996                 14.3238
    49   4                 7.68208      7.3715700000000002      14.712899999999999
    50   4      7.9195000000000002      7.1572899999999997      16.521000000000001
    51   2      10.822900000000001      2.6314199999999999      7.9150499999999999
    52   2      10.633100000000001      2.9167000000000001      6.4047299999999998
    53   7                 9.34558      2.4974799999999999                 6.04725
    54   2      8.8088300000000004      1.9544999999999999      7.1722799999999998
    55   7                 7.68004      1.5239799999999999      7.2026199999999996
    56   7      9.6336099999999991                 1.95448      8.2554099999999995
    57   4      10.911099999999999      3.5581299999999998      8.5222499999999997
    58   4                 11.6469                 1.98326      8.0627999999999993
    59   4      11.380699999999999      2.3806400000000001                 5.68377
    60   4                 10.6662      3.9994200000000002                 6.23766
    61   2                -13.2743     -7.9579899999999997      10.451000000000001
    62   2     -13.002800000000001     -7.9668000000000001      8.9359000000000002
    63   7     -11.567600000000001     -8.4354200000000006      8.8632200000000001
    64   2                -11.2173     -8.9847000000000001                 10.0756
    65   7     -10.211399999999999     -9.5499799999999997      10.358599999999999
    66   7                -12.2714     -8.8231099999999998                 10.9971
    67   4                -14.2225     -8.3416800000000002                 10.7583
    68   4     -13.007099999999999     -6.9798799999999996                 10.8771
    69   4     -13.179500000000001     -6.9177900000000001      8.4258900000000008
    70   4     -13.654199999999999     -8.6550799999999999      8.4144299999999994
    71   2                 10.5878      24.493300000000001     -9.6098499999999998
    72   2      11.363899999999999      24.821300000000001                -8.28552
    73   7                 12.7424      25.055900000000001     -8.7378900000000002
    74   2      12.921200000000001      24.681699999999999     -10.017300000000001
    75   7                 13.9734                 24.5898                 -10.587
    76   7                 11.6691                 24.3719     -10.603899999999999
    77   4      9.9484300000000001      25.308499999999999     -9.9692699999999999
    78   4      10.022399999999999      23.565300000000001     -9.5859500000000004
    79   4      11.326000000000001                 23.9864     -7.6188500000000001
    80   4                 11.0991      25.722799999999999                 -7.6696
    81   2                 7.41221      14.157400000000001      5.7142600000000003
    82   2      7.2949099999999998      15.661300000000001      6.1205499999999997
    83   7      6.4047299999999998                 15.6328      7.3213800000000004
    84   2      5.8586799999999997                 14.3734      7.4327100000000002
    85   7      5.1811499999999997      13.998699999999999                  8.3933
    86   7      6.2246600000000001                 13.5402      6.4196099999999996
    87   4      8.3512400000000007                 13.5604                 5.97628
    88   4      7.2412200000000002                 14.1187      4.6402599999999996
    89   4      6.7378400000000003      16.249099999999999      5.4094600000000002
    90   4      8.2065099999999997      16.169699999999999      6.3856200000000003
    91   2                -2.04298                  14.417      2.5811899999999999
    92   2                -1.42432                 15.0526                 1.27277
    93   7               -0.777505      13.880800000000001                0.629081
    94   2    -0.74930699999999995                 12.8804                  1.5122
    95   7               -0.105334                 11.8802      1.3863399999999999
    96   7     -1.5600000000000001                   13.09                 2.59483
    97   4     -3.1402399999999999                  14.371                 2.59267
    98   4     -1.6069100000000001                  14.943                 3.45953
    99   4    -0.65110000000000001      15.777699999999999                 1.51101
   100   4     -2.2248299999999999      15.335900000000001     0.57351700000000005
   101   2      2.6086900000000002      7.2646499999999996      7.2046700000000001
   102   2                 1.44048      6.8260800000000001      6.2947899999999999
   103   7     0.29714299999999999      7.1087999999999996      7.2497699999999998
   104   2     0.65713900000000003      8.0719499999999993      8.1403999999999996
   105   7    -0.27382000000000001      8.6289800000000003      8.7051599999999993
   106   7                 1.98475      8.2624899999999997      8.1316500000000005
   107   4      3.4138799999999998      7.8503999999999996      6.6507100000000001
   108   4                 2.98814      6.4032299999999998      7.8658900000000003
   109   4      1.4390499999999999      5.7342500000000003                 6.17239
   110   4      1.3114399999999999      7.4876399999999999      5.4419700000000004
   111   2     -6.7816700000000001     -1.6585000000000001                -1.23353
   112   2     -5.6186100000000003     -1.8812500000000001     -2.1820300000000001
   113   7                 -5.2881     -3.3291900000000001                -1.96468
   114   2     -6.4954499999999999                -3.85256     -1.6327499999999999
   115   7     -6.8166900000000004                -5.01471     -1.7402200000000001
   116   7     -7.3665599999999998     -2.9978500000000001     -1.1839200000000001
   117   4                -7.55579    -0.91850500000000002                -1.50563
   118   4     -6.4671399999999997     -1.4635100000000001    -0.25733600000000001
   119   4     -4.7326800000000002                 -1.2824     -1.9664999999999999
   120   4     -5.8460999999999999                -1.70384     -3.2461099999999998
   121   2      23.579000000000001                  15.862      5.4907300000000001
   122   2                 25.0731      15.789099999999999      5.8812699999999998
   123   7      25.576599999999999                 17.1633      5.5212500000000002
   124   2      24.486000000000001                 17.9057      5.0584499999999997
   125   7                 24.5137      19.023399999999999      4.5296599999999998
   126   7                 23.3796      17.160900000000002      4.9721000000000002
   127   4      22.876200000000001      15.720499999999999      6.3442299999999996
   128   4      23.263200000000001      15.168699999999999      4.7355299999999998
   129   4      25.627199999999998      15.020099999999999      5.3706899999999997
   130   4      25.179400000000001                 15.5594      6.9545500000000002
   131   2                 11.8323      20.278400000000001      15.715999999999999
   132   2                 12.5433      19.328600000000002                 16.6265
   133   7                 13.3957                 18.5426                 15.7727
   134   2                 13.1896      18.915600000000001      14.395300000000001
   135   7      13.678000000000001      18.337700000000002                  13.452
   136   7                  12.481      20.002099999999999                 14.4221
   137   4                 12.0379      21.305599999999998      16.001899999999999
   138   4      10.761200000000001      20.087900000000001                 15.5428
   139   4                 11.8246      18.729399999999998      17.213999999999999
   140   4                 13.2027      19.899000000000001                 17.3218
   141   2      23.202500000000001                 24.3246      5.7453000000000003
   142   2      22.346499999999999      23.323899999999998      6.4479600000000001
   143   7      21.049199999999999      23.938600000000001      6.4311400000000001
   144   2                 21.0473      24.798200000000001      5.3464099999999997
   145   7      20.076000000000001      25.425699999999999      4.9891500000000004
   146   7      22.226199999999999      24.941299999999998      4.7670399999999997
   147   4      24.019400000000001      23.964600000000001      5.0445900000000004
   148   4      23.578800000000001      25.158300000000001      6.3422599999999996
   149   4      22.581099999999999                 23.2379      7.5068000000000001
   150   4                 22.2332      22.373999999999999      5.9124100000000004
   151   2     -5.3364700000000003      16.802600000000002     -6.6893399999999996
   152   2     -3.9091499999999999      16.169799999999999     -6.5730500000000003
   153   7     -3.2128299999999999      16.953600000000002     -5.5363300000000004
   154   2     -3.8173599999999999      18.184799999999999     -5.4975699999999996
   155   7                -3.38035      19.190200000000001     -4.9974800000000004
   156   7     -4.9300899999999999      18.198399999999999     -6.2231199999999998
   157   4     -6.0635199999999996                 16.4146                -6.05314
   158   4     -5.8417599999999998      16.839300000000001     -7.6448600000000004
   159   4     -3.3313700000000002      16.268799999999999     -7.4750100000000002
   160   4     -4.0287699999999997      15.164099999999999     -6.0295899999999998
   161   2                -1.09093                 12.0404                 15.4948
   162   2                0.353159                 11.9351      15.023199999999999
   163   7     0.26469599999999999                 11.0192      13.806100000000001
   164   2     -1.0318099999999999      10.794600000000001                 13.5198
   165   7                -1.50898      10.137499999999999      12.627800000000001
   166   7     -1.8265100000000001                 11.5509                 14.3391
   167   4     -1.3468199999999999      13.068300000000001                 15.7082
   168   4                -1.18923                 11.3819      16.396899999999999
   169   4                 1.00074                 11.4061                 15.7235
   170   4     0.76439500000000005                  12.933      14.717000000000001
   171   2      19.513500000000001      24.434999999999999      21.485600000000002
   172   2      20.798300000000001      23.704599999999999      21.980799999999999
   173   7      20.335100000000001      22.800799999999999      23.117599999999999
   174   2      19.085100000000001      23.338100000000001      23.488600000000002
   175   7      18.566600000000001      23.006399999999999      24.521999999999998
   176   7      18.648800000000001                 24.3461      22.668399999999998
   177   4      19.030000000000001      23.964099999999998      20.673999999999999
   178   4      19.712499999999999      25.498799999999999                  21.311
   179   4      21.578700000000001      24.445699999999999      22.376200000000001
   180   4      21.248799999999999                 23.0383                 21.2866
   181   2      15.266299999999999      11.510199999999999                 14.6571
   182   2                 16.8446                 11.5951      14.589700000000001
   183   7      17.061199999999999                  13.025                 14.2178
   184   2      15.889799999999999      13.518800000000001                 13.8055
   185   7                 15.7943                 14.5082      13.140499999999999
   186   7                 14.7852                 12.7676                 14.1774
   187   4      14.962300000000001                 11.4201      15.783300000000001
   188   4      14.778700000000001      10.745699999999999                 14.1433
   189   4      17.233599999999999                 11.0459                 13.7111
   190   4      17.366499999999998                 11.4366      15.523199999999999
   191   2      16.516400000000001                 23.8935                 18.9726
   192   2      15.905099999999999                 24.9251      18.028600000000001
   193   7                 14.8644      24.224799999999998                 17.3537
   194   2      14.687900000000001      23.016200000000001      17.917100000000001
   195   7                 13.8558      22.232399999999998      17.569199999999999
   196   7                 15.6183      22.763999999999999      18.849699999999999
   197   4      16.530899999999999      24.126100000000001      20.070599999999999
   198   4      17.437999999999999      23.575500000000002                 18.6389
   199   4      16.572900000000001      25.227499999999999      17.206399999999999
   200   4                 15.4183      25.856000000000002      18.526399999999999
   201   2                 15.1934      13.858499999999999      20.986899999999999
   202   2      15.707000000000001                 14.1813      22.339099999999998
   203   7      17.115400000000001      13.847300000000001      22.428999999999998
   204   2      17.285399999999999                 12.9148      21.430399999999999
   205   7      18.325600000000001                 12.4726      21.056699999999999
   206   7                 16.1435      12.791700000000001      20.669599999999999
   207   4                 15.2613                 14.6966      20.309100000000001
   208   4                  14.173      13.477499999999999      20.968699999999998
   209   4      15.128299999999999                  13.669                 23.0901
   210   4                 15.5441      15.247999999999999      22.535900000000002
   211   2                 18.5261                 16.0246      19.514299999999999
   212   2      19.827400000000001      15.682499999999999      18.744599999999998
   213   7      19.498100000000001      14.544600000000001      17.944700000000001
   214   2      18.179400000000001                 14.2136                 18.0715
   215   7      17.654499999999999      13.272500000000001      17.404800000000002
   216   7      17.557700000000001                 15.0703      18.847100000000001
   217   4                 18.0624      17.029599999999999                  19.238
   218   4      18.504100000000001                 15.8439      20.554099999999998
   219   4      20.623699999999999      15.354100000000001      19.414300000000001
   220   4      20.136700000000001      16.563600000000001                 18.0746
   221   2                -3.23447      18.192399999999999      5.8422999999999998
   222   2     -2.2254800000000001      18.691600000000001                 4.75929
   223   7     -2.5742600000000002      20.125399999999999      4.5883799999999999
   224   2     -3.5631599999999999      20.394400000000001      5.4662800000000002
   225   7     -4.2085900000000001      21.455500000000001      5.4687900000000003
   226   7     -3.7558799999999999                 19.4328      6.3880600000000003
   227   4                -2.82443                 17.7044      6.7343299999999999
   228   4     -4.1091100000000003      17.712399999999999      5.4208100000000004
   229   4                -2.42944      18.040800000000001      3.8559000000000001
   230   4                -1.13889      18.624199999999998      5.0297200000000002
   231   2      12.114800000000001      16.976500000000001      21.927299999999999
   232   2      10.874499999999999      17.039400000000001      22.892700000000001
   233   7      10.430400000000001                 15.5916      22.901700000000002
   234   2      11.307700000000001                 14.8409      22.254000000000001
   235   7      11.137600000000001      13.653700000000001      22.180199999999999
   236   7                 12.3108      15.533300000000001      21.672799999999999
   237   4      13.101800000000001      17.484100000000002      22.246099999999998
   238   4                 11.8505      17.479500000000002      20.980499999999999
   239   4      9.9804200000000005      17.602399999999999                 22.4983
   240   4                 11.0518      17.321899999999999      23.936800000000002
   241   2      6.4355399999999996      21.880800000000001      20.470500000000001
   242   2      6.5776300000000001      22.727599999999999      19.209399999999999
   243   7      5.2155399999999998      23.227900000000002      18.902799999999999
   244   2      4.3749599999999997                 22.7118      19.819800000000001
   245   7      3.1314799999999998      22.894600000000001                 19.8446
   246   7      5.0140000000000002      21.926100000000002      20.747399999999999
   247   4      6.9626799999999998      22.343399999999999      21.352900000000002
   248   4      6.6708400000000001      20.796700000000001      20.423300000000001
   249   4      6.9952699999999997      22.224699999999999      18.321400000000001
   250   4      7.1755899999999997                 23.5822                    19.5
   251   2      19.642600000000002      20.099799999999998     0.83094599999999996
   252   2      19.925599999999999                 18.6403                 1.07169
   253   7      20.135200000000001      18.094200000000001                -0.23476
   254   2      20.045100000000001                 19.0352                -1.15998
   255   7      20.306000000000001      18.830300000000001     -2.3171499999999998
   256   7                 19.5532      20.190899999999999               -0.578345
   257   4      20.439499999999999      20.713000000000001                  1.2221
   258   4      18.721599999999999                 20.3354      1.2336100000000001
   259   4      19.178599999999999      18.107099999999999                 1.61836
   260   4      20.929400000000001      18.611000000000001      1.6095900000000001
   261   2      1.1938599999999999      13.392899999999999     -3.5691899999999999
   262   2     0.67279100000000003                 13.0265     -2.1495899999999999
   263   7      1.8725499999999999                 12.4285                -1.58403
   264   2      2.5516299999999998      11.819900000000001                -2.60853
   265   7      3.4621400000000002                 10.9894     -2.5089899999999998
   266   7      2.0993200000000001                  12.286     -3.8216199999999998
   267   4      1.7459499999999999                 14.3438     -3.5207199999999998
   268   4     0.58828000000000003                 13.4636                -4.47797
   269   4    -0.17586299999999999      12.308400000000001                -2.06162
   270   4     0.35027399999999997                 13.8866     -1.4837100000000001
   271   2      6.0767699999999998                 10.3155                 8.76051
   272   2                 6.85114                 10.2042      10.003500000000001
   273   7      6.8408800000000003      8.6816899999999997                 10.1828
   274   2                 6.80002      8.2085699999999999      8.8661700000000003
   275   7      6.9233000000000002      6.9980399999999996      8.6320599999999992
   276   7      6.4209800000000001      9.1558399999999995      8.0020000000000007
   277   4      6.1633899999999997      11.161199999999999      8.0817200000000007
   278   4      4.9440400000000002      10.318899999999999      9.0122800000000005
   279   4      6.4153799999999999      10.467700000000001                 10.9627
   280   4      7.8983400000000001      10.418900000000001      9.9226100000000006
   281   2      7.1876800000000003      4.9039599999999997      10.611000000000001
   282   2      6.4017900000000001      4.4072100000000001      11.882999999999999
   283   7      5.8269200000000003      3.0548899999999999                 11.4488
   284   2      6.6397500000000003      2.6331799999999999                  10.381
   285   7      6.6681999999999997      1.4595400000000001                 10.0191
   286   7      7.3239599999999996      3.6657799999999998      9.8228200000000001
   287   4                   8.173      5.2466699999999999                 10.8674
   288   4      6.6625800000000002      5.6649200000000004      9.9960100000000001
   289   4      5.4742199999999999      4.9705000000000004      12.042299999999999
   290   4      6.9625399999999997      4.1267399999999999      12.752700000000001
   291   2      16.361000000000001      4.3071900000000003      9.9989000000000008
   292   2                  15.529      3.8188300000000002      8.7743000000000002
   293   7                 14.4413      4.8571999999999997      8.6682600000000001
   294   2      15.024900000000001      5.9813400000000003      9.1604100000000006
   295   7      14.645899999999999      7.1263100000000001      9.0821500000000004
   296   7      16.194600000000001      5.7131699999999999      9.7929200000000005
   297   4      17.395800000000001      4.0424899999999999      9.9743499999999994
   298   4      15.979799999999999      4.0420400000000001      10.980600000000001
   299   4      15.078799999999999      2.8216299999999999      9.0259499999999999
   300   4      16.163399999999999      3.7992499999999998      7.8657300000000001
   301   2                 20.9253      10.259499999999999      4.0967700000000002
   302   2      19.674199999999999      10.259499999999999      5.0281500000000001
   303   7      19.041699999999999      9.0312300000000008      4.8425700000000003
   304   2                 19.8537      8.1808800000000002      4.0708799999999998
   305   7      19.585100000000001      7.0364899999999997      3.7620800000000001
   306   7      20.884899999999998      8.8644300000000005                 3.61206
   307   4      21.821200000000001                 10.3163                 4.69475
   308   4                 20.9864                 10.9742                 3.28071
   309   4                 18.8645      10.930999999999999      4.7629599999999996
   310   4      19.975100000000001                 10.3912                 6.07761
   311   2    -0.85131400000000002      18.398700000000002                 13.7323
   312   2     0.61722299999999997                  18.695      13.780099999999999
   313   7      1.1755100000000001                 17.7287      14.714600000000001
   314   2                0.238762      16.719899999999999                 14.9208
   315   7     0.35883199999999998      15.782299999999999                 15.6944
   316   7               -0.975441      17.046199999999999                 14.3443
   317   4     -1.3271500000000001      18.479399999999998                 12.7715
   318   4     -1.3806499999999999                 19.0974                 14.4255
   319   4      1.0167299999999999                 19.7014      14.010199999999999
   320   4                 1.11894      18.343599999999999      12.893000000000001
   321   2      12.308299999999999     -6.4569999999999999      18.351600000000001
   322   2                 12.5366     -6.2613300000000001      16.875699999999998
   323   7                 13.6402     -7.2260200000000001      16.683700000000002
   324   2                 13.5258     -8.1634899999999995      17.660799999999998
   325   7      14.299200000000001     -9.0927299999999995                 17.6722
   326   7                 12.5709     -7.9093499999999999      18.567499999999999
   327   4      11.304600000000001     -6.1365400000000001      18.631399999999999
   328   4      13.029199999999999                -5.91967      18.976099999999999
   329   4      12.831899999999999     -5.2453500000000002      16.507000000000001
   330   4                 11.6465     -6.6389699999999996      16.329699999999999
   331   2                 16.1267      21.711300000000001      14.844900000000001
   332   2      15.121600000000001                 22.4801      13.906499999999999
   333   7                 15.7674      23.860900000000001      13.777100000000001
   334   2                 16.9358      23.867699999999999      14.546799999999999
   335   7                 17.5655      24.859999999999999      14.712300000000001
   336   7                  17.221      22.682600000000001      15.094200000000001
   337   4      16.540400000000002                 20.7957      14.327999999999999
   338   4      15.687799999999999      21.444199999999999                 15.8027
   339   4      14.117599999999999      22.579899999999999                 14.3437
   340   4                 15.1144      22.065200000000001                 12.9375
   341   2      21.171399999999998    -0.54194399999999998                 17.6252
   342   2                 20.9436   -0.076478400000000002      16.159700000000001
   343   7                 20.2501                 1.21289                 16.3095
   344   2                 19.9755      1.4228400000000001                 17.6097
   345   7                  19.445      2.3803700000000001      18.167100000000001
   346   7                  20.419     0.42307600000000001      18.367799999999999
   347   4      22.202100000000002    -0.42599700000000001      17.948399999999999
   348   4                 20.7761     -1.5238700000000001      17.908899999999999
   349   4      20.159600000000001    -0.63437500000000002                 15.6479
   350   4      21.814800000000002   -0.021113099999999999                 15.4979
   351   2      6.5222800000000003      9.5491299999999999      4.1325399999999997
   352   2      7.8057999999999996      8.8774800000000003      3.7329699999999999
   353   7      8.5636500000000009      9.0048600000000008                 4.89161
   354   2      8.1677900000000001                 10.0854      5.6249799999999999
   355   7      8.8046399999999991      10.581300000000001      6.4859200000000001
   356   7      7.0258399999999996      10.550599999999999      5.1516700000000002
   357   4      5.6810299999999998      8.9260800000000007                 4.55436
   358   4      6.0395099999999999                 10.2003                 3.43588
   359   4      8.3685600000000004                 9.35215      2.9021599999999999