(written by ASE)

915 atoms
9 atom types

0.0      21.712770568302616  xlo xhi
0.0      21.712770568302616  ylo yhi
0.0      21.712770568302616  zlo zhi

Atoms # atomic

     1   2                  14.285                 5.23271      5.8630699999999996
     2   2      14.438599999999999      3.7286000000000001      6.0662799999999999
     3   7      15.893800000000001      3.5770900000000001                 6.19503
     4   2                 16.5017      4.5809899999999999      5.5276500000000004
     5   7      17.717600000000001                 4.58047      5.3808499999999997
     6   7                 15.6151      5.5867699999999996                 5.26213
     7   4      14.103999999999999      5.7792700000000004      6.7699100000000003
     8   4      13.470000000000001      5.5020100000000003                 5.14975
     9   4      14.077400000000001      3.0845500000000001      5.2586599999999999
    10   4      14.018800000000001      3.3931300000000002      7.0472200000000003
    11   2      3.2392699999999999      12.924099999999999      23.305800000000001
    12   2      3.8748300000000002      13.930400000000001      24.247800000000002
    13   7      3.8626100000000001                 13.2606      25.472000000000001
    14   2      3.5870099999999998                 11.9224      25.342300000000002
    15   7      3.4909599999999998      11.168200000000001      26.292200000000001
    16   7      3.4168699999999999                  11.648                 24.0275
    17   4      3.7615400000000001                 12.7562      22.362400000000001
    18   4      2.1790500000000002      13.188499999999999                 23.2895
    19   4      3.2221700000000002                 14.8268      24.389700000000001
    20   4      4.8488800000000003      14.310600000000001                 23.9999
    21   2                 2.86938      3.8159800000000001                 16.1112
    22   2      3.9347599999999998      2.8885999999999998                  15.657
    23   7      4.3267199999999999      3.3946999999999998      14.345700000000001
    24   2                 3.30715      4.1753200000000001                  13.897
    25   7      3.2922500000000001      4.8450600000000001                 12.8491
    26   7                 2.36761      4.2943199999999999                 14.8665
    27   4                 3.26267      4.6664300000000001      16.643999999999998
    28   4                 1.95302                 3.61103      16.738900000000001
    29   4                 3.73705                 1.77746                 15.4665
    30   4      4.7701900000000004                 2.92326      16.361799999999999
    31   2      10.891400000000001    0.091086200000000006     -1.0880300000000001
    32   2                 10.0962      1.0315799999999999     -2.0348799999999998
    33   7                 10.4693      2.3422999999999998                 -1.6456
    34   2      11.367699999999999                 2.24472    -0.59726699999999999
    35   7      11.764799999999999      3.2258599999999999   0.0033774600000000001
    36   7      11.728999999999999                  1.0225    -0.37004100000000001
    37   4                  11.542               -0.448181                -1.78721
    38   4      10.223800000000001    -0.44991399999999998    -0.42352299999999998
    39   4      9.0081000000000007                0.911721                -1.87094
    40   4      10.366400000000001     0.79149700000000001     -3.0522499999999999
    41   2      8.2522099999999998      6.0789200000000001                  13.887
    42   2                 7.92774      7.4292999999999996      14.582800000000001
    43   7      6.9871299999999996      7.0468500000000001                    15.6
    44   2      6.7094699999999996      5.7515700000000001                 15.5297
    45   7      5.7924899999999999      5.2734500000000004      16.195900000000002
    46   7      7.5227500000000003                 5.07552      14.670299999999999
    47   4      9.3992699999999996      5.8668699999999996                 13.8131
    48   4      7.7332700000000001      6.1116700000000002      12.857699999999999
    49   4      7.5428499999999996      8.2411999999999992                 13.9519
    50   4      8.7265999999999995      7.9153000000000002      15.122999999999999
    51   2                 11.2371      1.4642299999999999      8.9756099999999996
    52   2      11.108700000000001                 2.77372      8.2239199999999997
    53   7      9.8586899999999993      2.4798100000000001      7.4016999999999999
    54   2      9.6130499999999994      1.1707700000000001      7.3846999999999996
    55   7      8.8376099999999997     0.59112399999999998      6.6436099999999998
    56   7                 10.5259     0.51995100000000005      8.1487099999999995
    57   4      10.789199999999999      1.4216200000000001      9.9643099999999993
    58   4                 12.2402      1.0648299999999999      9.0026799999999998
    59   4      11.931699999999999      2.9281700000000002                  7.6315
    60   4                 10.9156                 3.60446      8.8947500000000002
    61   2     -11.283200000000001     -8.0669199999999996      9.9597099999999994
    62   2     -11.542299999999999     -7.3742099999999997      8.5587300000000006
    63   7                -10.9389     -8.2893799999999995      7.5700799999999999
    64   2                -10.2058     -9.1922999999999995      8.2097499999999997
    65   7     -9.5076199999999993                -10.0036      7.6231099999999996
    66   7     -10.220499999999999     -9.1137899999999998      9.6130099999999992
    67   4     -12.120699999999999     -8.4574800000000003      10.460699999999999
    68   4                -10.7789     -7.4243300000000003                 10.6691
    69   4                -11.1694     -6.4257299999999997      8.5099599999999995
    70   4     -12.589700000000001     -7.3040399999999996      8.2216799999999992
    71   2                 11.7536                 25.1067     -7.3458100000000002
    72   2      12.313599999999999      23.990400000000001     -6.4449800000000002
    73   7      12.934900000000001                 23.0228     -7.3859500000000002
    74   2      12.704599999999999      23.432500000000001     -8.6657499999999992
    75   7      12.872999999999999      22.796099999999999     -9.6488700000000005
    76   7      12.156499999999999      24.692900000000002     -8.6741100000000007
    77   4      12.139200000000001                 26.1038     -7.1679300000000001
    78   4                 10.6922      24.991900000000001     -7.2495000000000003
    79   4      11.528600000000001      23.388999999999999     -5.9764499999999998
    80   4      13.093400000000001                 24.2592     -5.7549099999999997
    81   2      6.1719499999999998                 14.5406      6.1490999999999998
    82   2      5.0073699999999999                 15.3367      6.7597199999999997
    83   7      4.5080600000000004      14.523999999999999      7.8340699999999996
    84   2      5.6358300000000003                 13.8073      8.2731300000000001
    85   7                 5.56602      13.117800000000001      9.2580100000000005
    86   7      6.6448200000000002      13.845599999999999                 7.32538
    87   4      7.0900999999999996                 15.0335      5.8055899999999996
    88   4      5.8241100000000001      13.821300000000001      5.3813000000000004
    89   4      4.2090899999999998                 15.6424      6.0613700000000001
    90   4      5.4544100000000002                 16.2059      7.2650499999999996
    91   2    -0.56103199999999998                  11.305      4.4135900000000001
    92   2   -0.083134700000000006      12.729100000000001      4.4272799999999997
    93   7                0.382386                 12.8606      3.0417700000000001
    94   2    -0.34627000000000002                 12.0816      2.2165599999999999
    95   7    -0.38311699999999999      12.216799999999999      1.0055499999999999
    96   7    -0.99563000000000001                 11.1257                 3.00909
    97   4     -1.4189000000000001                 11.0375      5.0059800000000001
    98   4     0.27263100000000001      10.637700000000001                  4.6006
    99   4     0.74268699999999999                 12.8919      5.0766900000000001
   100   4    -0.83579000000000003      13.478999999999999      4.5948900000000004
   101   2      1.1014200000000001      7.7772699999999997      7.2011000000000003
   102   2                0.374359      8.2358700000000002      5.9695099999999996
   103   7    -0.56196000000000002      9.2197499999999994      6.6060100000000004
   104   2    -0.71532700000000005                 9.01553      7.9217599999999999
   105   7     -1.4771799999999999      9.4274400000000007      8.7424999999999997
   106   7     0.27688299999999999      8.1426499999999997      8.2900200000000002
   107   4      2.0039400000000001      8.3200000000000003      7.2395199999999997
   108   4      1.3371299999999999      6.6854399999999998      7.1621499999999996
   109   4    -0.30649599999999999      7.4435099999999998      5.5210100000000004
   110   4     0.94360100000000002      8.7671700000000001      5.1639099999999996
   111   2     -6.4619400000000002     -1.4587300000000001     -2.7433299999999998
   112   2     -5.0553900000000001     -1.9942299999999999     -2.4209700000000001
   113   7     -5.1210899999999997     -3.3320699999999999                 -2.7582
   114   2     -6.4053100000000001     -3.7419899999999999                 -2.7281
   115   7     -6.6613699999999998     -4.9565299999999999     -2.7852199999999998
   116   7     -7.2506899999999996     -2.7079200000000001     -2.7181199999999999
   117   4     -6.5637499999999998    -0.96051799999999998     -3.7366799999999998
   118   4     -6.8628200000000001    -0.86004400000000003                -1.90062
   119   4     -4.6336500000000003     -1.9023600000000001     -1.3850899999999999
   120   4     -4.3412699999999997     -1.5185900000000001     -3.1136699999999999
   121   2      21.504799999999999      16.531099999999999                 4.34903
   122   2      22.718800000000002      16.001300000000001      4.9445100000000002
   123   7                 23.8063      16.898199999999999      4.5557499999999997
   124   2                 23.2652      18.031199999999998                 3.97804
   125   7      24.054200000000002                 18.9603      3.8954499999999999
   126   7      21.870999999999999      17.876000000000001                 3.87473
   127   4      20.761199999999999                 16.8002      5.1071400000000002
   128   4                 21.0228      15.897600000000001                 3.56724
   129   4      22.991199999999999      15.020799999999999      4.4981499999999999
   130   4      22.767099999999999      15.920400000000001      5.9953099999999999
   131   2                 10.7348      18.709199999999999                 15.5726
   132   2      11.393700000000001      18.976299999999998      16.854800000000001
   133   7                 12.4223                 17.8127      16.811199999999999
   134   2      12.845700000000001      17.735299999999999                 15.5641
   135   7                 13.8673      17.158200000000001                 15.2508
   136   7      11.974600000000001      18.390499999999999      14.697800000000001
   137   4                 10.3254      19.568000000000001                 15.1379
   138   4                 10.0565                 17.8581                 15.5595
   139   4      10.811199999999999      18.935199999999998      17.782699999999998
   140   4                 12.0549                 19.8627      16.932099999999998
   141   2                  23.907      25.592199999999998      4.5364199999999997
   142   2      23.851700000000001                 25.3004      6.0692399999999997
   143   7                 22.4298      24.805700000000002      6.2164799999999998
   144   2                 21.7349      25.115300000000001      5.1255699999999997
   145   7      20.511399999999998      25.101700000000001      5.0412400000000002
   146   7      22.504999999999999      25.638300000000001      4.0928599999999999
   147   4      24.499600000000001      24.858499999999999      3.9010799999999999
   148   4      24.417899999999999      26.540800000000001      4.3238300000000001
   149   4      23.877400000000002                 26.1844      6.7706999999999997
   150   4                 24.5136                 24.5398      6.4862399999999996
   151   2                -4.71915      16.169699999999999     -5.4768400000000002
   152   2     -4.2031099999999997                 15.8668     -6.9325900000000003
   153   7     -3.7902399999999998      17.134699999999999     -7.4749800000000004
   154   2     -3.7161599999999999      18.011399999999998                -6.41683
   155   7     -3.3385899999999999      19.162800000000001     -6.5392200000000003
   156   7     -4.1565000000000003                 17.4772     -5.2486300000000004
   157   4     -4.1994999999999996                  15.472     -4.8542300000000003
   158   4     -5.8598800000000004      16.164400000000001     -5.2915900000000002
   159   4     -5.0419200000000002      15.437200000000001                -7.63218
   160   4                 -3.3956                 15.0825     -7.0182200000000003
   161   2    -0.23785100000000001      12.226800000000001      13.810600000000001
   162   2      1.0820099999999999      11.567500000000001      13.640700000000001
   163   7                0.776447                 10.2919                 12.9511
   164   2    -0.43603700000000001                 10.3299      12.434799999999999
   165   7    -0.79424899999999998      9.4817199999999993                  11.667
   166   7     -1.1135999999999999      11.409800000000001                 12.8841
   167   4    -0.21341399999999999      13.270099999999999      13.465199999999999
   168   4    -0.58537600000000001                 12.1157      14.836499999999999
   169   4                 1.73221                 11.3726      14.494199999999999
   170   4                 1.63263      12.203900000000001                 12.9437
   171   2                 20.5319      25.003699999999998      22.790900000000001
   172   2      19.993400000000001      24.296600000000002      21.534700000000001
   173   7      18.989000000000001      23.439399999999999      22.220800000000001
   174   2                 18.6127      23.997800000000002      23.399000000000001
   175   7      17.886299999999999                 23.4175      24.220400000000001
   176   7      19.382899999999999      25.078399999999998      23.682600000000001
   177   4      20.971699999999998      26.006399999999999      22.699999999999999
   178   4      21.230699999999999                 24.3901      23.297499999999999
   179   4      20.827400000000001      23.718499999999999      21.162199999999999
   180   4      19.454999999999998      24.951000000000001      20.767099999999999
   181   2      16.581499999999998      10.966699999999999                 14.0631
   182   2      17.785299999999999      11.841900000000001      14.025499999999999
   183   7      17.266400000000001                 12.9785      13.211600000000001
   184   2      15.896699999999999                 13.0183                 13.3515
   185   7                 15.2202      13.953799999999999                 13.0002
   186   7                 15.4254      11.893000000000001                 13.9237
   187   4      16.410599999999999      10.315300000000001                 14.8758
   188   4      16.498000000000001      10.325799999999999                 13.1288
   189   4      18.627400000000002                 11.4031                 13.5251
   190   4      18.105799999999999                 12.2903      14.994400000000001
   191   2      16.465499999999999      24.061199999999999      19.812899999999999
   192   2      16.395199999999999      25.320699999999999      18.942799999999998
   193   7      15.371600000000001                 24.9208      17.950600000000001
   194   2                 14.6539      23.900700000000001                 18.3916
   195   7      13.645099999999999                 23.5045                 17.9011
   196   7                 15.2415      23.395900000000001      19.558900000000001
   197   4                 16.5715                 24.3796                 20.8461
   198   4                 17.2287                 23.4495                 19.5063
   199   4      17.279800000000002      25.575500000000002      18.354099999999999
   200   4      16.046299999999999      26.259899999999998      19.445699999999999
   201   2      15.244199999999999                 14.7682      21.701899999999998
   202   2                 16.7318                 15.0595      21.618200000000002
   203   7                 17.1309                 14.0869      20.581499999999998
   204   2      16.081099999999999      13.365500000000001      20.099299999999999
   205   7      16.273599999999998                 12.7607                 19.0411
   206   7                 14.9741      13.648300000000001      20.700500000000002
   207   4                 14.4503                 15.4369      21.516999999999999
   208   4                 14.9643                 14.2834      22.656199999999998
   209   4      17.226400000000002      14.818899999999999      22.580200000000001
   210   4      16.877300000000002                 16.1264                 21.4023
   211   2      20.957999999999998                 15.4969      18.397400000000001
   212   2      20.839400000000001                 14.4977      19.599399999999999
   213   7      20.172799999999999      13.327199999999999      19.115300000000001
   214   2      19.632200000000001                 13.6731      17.918600000000001
   215   7                 18.9086                 12.9315      17.232399999999998
   216   7      20.097999999999999                 14.8093      17.436900000000001
   217   4                 21.9451                 15.4039      18.003599999999999
   218   4      20.666799999999999      16.612300000000001      18.621600000000001
   219   4                 20.3569                 14.7934      20.465299999999999
   220   4      21.859300000000001                  14.157      19.813400000000001
   221   2     -3.7475800000000001      18.240300000000001      6.1236600000000001
   222   2     -3.6121699999999999      18.322199999999999      4.5801400000000001
   223   7     -3.5601699999999998                 19.8017      4.4182100000000002
   224   2                -3.89127      20.447800000000001      5.6020399999999997
   225   7     -3.7083699999999999      21.636600000000001      5.7323700000000004
   226   7     -4.2421499999999996      19.589099999999998                 6.60114
   227   4     -2.8162799999999999      17.891100000000002                 6.57125
   228   4     -4.5249300000000003      17.497199999999999                 6.36782
   229   4     -4.5032800000000002      17.902899999999999      4.0355100000000004
   230   4     -2.6358000000000001                 17.9939      4.2360699999999998
   231   2                 11.1319      18.028500000000001      20.939599999999999
   232   2                 10.1328      17.664100000000001      22.030899999999999
   233   7      9.9124800000000004      16.221399999999999      21.929300000000001
   234   2                 10.7028                 15.7508      20.953099999999999
   235   7                 10.8078      14.562799999999999                  20.727
   236   7                 11.4183      16.729800000000001      20.260200000000001
   237   4      11.988300000000001      18.427600000000002      21.404499999999999
   238   4      10.681800000000001      18.651299999999999      20.179200000000002
   239   4      9.2620699999999996      18.250299999999999                 22.0899
   240   4      10.532999999999999      17.822099999999999      22.998899999999999
   241   2      5.5986000000000002      22.088000000000001      19.969799999999999
   242   2      5.9974499999999997      23.264600000000002      18.994199999999999
   243   7      4.7154699999999998                 23.8597                 18.6768
   244   2      3.7595499999999999                 23.3828                 19.5136
   245   7      2.5997699999999999      23.844200000000001      19.505400000000002
   246   7      4.1936400000000003      22.408300000000001      20.267499999999998
   247   4      6.1283599999999998      22.173300000000001      20.953800000000001
   248   4      5.6578099999999996                 21.1053                 19.5047
   249   4      6.4752700000000001      22.931799999999999      18.049499999999998
   250   4      6.6376900000000001      23.995799999999999                 19.4513
   251   2      19.376999999999999      19.139700000000001                 1.25867
   252   2      19.726400000000002      17.586200000000002      1.2418800000000001
   253   7      19.742100000000001      17.241299999999999               -0.204286
   254   2      19.498200000000001      18.355499999999999    -0.92697300000000005
   255   7                 19.4435      18.401800000000001     -2.1249500000000001
   256   7                 19.3154      19.531400000000001    -0.14749200000000001
   257   4      20.292000000000002                 19.6999      1.6649799999999999
   258   4                 18.4358      19.392900000000001      1.8465400000000001
   259   4      19.085000000000001      16.859000000000002      1.7530300000000001
   260   4      20.720199999999998      17.524100000000001                 1.61043
   261   2      3.5568599999999999      13.304399999999999     -3.8839299999999999
   262   2      2.1715800000000001      13.212899999999999     -3.2751199999999998
   263   7      2.4169200000000002      12.416700000000001     -2.0762499999999999
   264   2      3.4323199999999998                 11.6389     -2.3433899999999999
   265   7      3.7589700000000001      10.750299999999999                -1.57883
   266   7      4.1775099999999998                 12.0421     -3.4856799999999999
   267   4                 4.13964      14.138500000000001                -3.49044
   268   4      3.6274000000000002                 13.2194     -4.9743000000000004
   269   4      1.3823399999999999                 12.9122     -3.9844900000000001
   270   4                 1.85388                 14.2043     -2.8332999999999999
   271   2                 6.28118      9.8621599999999994      9.0045000000000002
   272   2      7.6066700000000003                 10.2059      9.6409199999999995
   273   7      7.7853599999999998                 9.07376                 10.6319
   274   2      6.4855499999999999      8.6053700000000006                 10.8965
   275   7      6.2252000000000001      7.8938800000000002      11.831200000000001
   276   7      5.5934999999999997      9.1480899999999998                  10.068
   277   4      6.2632099999999999      9.1167999999999996      8.1323500000000006
   278   4      5.7600100000000003      10.794499999999999      8.6344600000000007
   279   4      7.7049200000000004      11.129799999999999      10.157500000000001
   280   4      8.4080100000000009                 10.0006                 8.96312
   281   2      8.1934900000000006      3.4980099999999998      11.765000000000001
   282   2      6.6286500000000004                 3.65252                 11.8986
   283   7      6.0834900000000003      2.9042400000000002                  10.727
   284   2      7.1516799999999998      2.2709700000000002      10.097200000000001
   285   7      6.9269999999999996                 1.49386      9.1902100000000004
   286   7      8.3206900000000008      2.5605500000000001                 10.7195
   287   4      8.5819700000000001      3.0484300000000002      12.682600000000001
   288   4      8.8181899999999995      4.2912699999999999      11.367000000000001
   289   4                 6.38307      4.7411899999999996      11.816000000000001
   290   4                 6.27135                 3.19448                 12.8132
   291   2                 15.6828      2.5053399999999999                 10.9259
   292   2                 14.8734                 2.58928      9.6244200000000006
   293   7                 13.9764      3.7162099999999998                 9.80762
   294   2                 14.4057      4.5112399999999999                 10.8065
   295   7      13.963699999999999      5.6640699999999997      10.897399999999999
   296   7      15.321199999999999                 3.81847      11.576000000000001
   297   4      16.749600000000001                 2.48916      10.930899999999999
   298   4                 15.4054      1.7030400000000001                 11.6084
   299   4                 14.1447      1.7771399999999999      9.5167800000000007
   300   4                  15.394      2.7996699999999999      8.6401500000000002
   301   2      18.781700000000001      8.4402899999999992      3.9338500000000001
   302   2      17.504999999999999      9.1686099999999993      4.6774100000000001
   303   7                 17.5929                 8.69895      5.9898199999999999
   304   2      18.327500000000001      7.5802199999999997      6.0578700000000003
   305   7                 18.4116      6.8239299999999998      6.9858700000000002
   306   7      18.957000000000001      7.3393300000000004      4.8626699999999996
   307   4      19.792200000000001      8.9928799999999995      3.8677600000000001
   308   4                 18.5045      8.1340199999999996      2.9771899999999998
   309   4      16.564900000000002      8.8861600000000003      4.1737700000000002
   310   4                 17.6816                 10.2486      4.8281799999999997
   311   2    -0.77773800000000004                 18.4025      13.457800000000001
   312   2     0.59613099999999997      19.111999999999998                 13.5017
   313   7                 1.49502      18.103300000000001                 14.0069
   314   2     0.84132200000000001      16.918800000000001                 14.1478
   315   7      1.3507400000000001      15.936199999999999      14.661199999999999
   316   7    -0.46209800000000001                  17.058                  13.811
   317   4                -1.06664      18.296900000000001      12.413600000000001
   318   4     -1.5715600000000001      18.871200000000002                 14.0665
   319   4     0.64331400000000005      19.914400000000001                 14.2706
   320   4     0.92544899999999997      19.555199999999999      12.582599999999999
   321   2                 12.9636     -7.9796100000000001                 18.0564
   322   2                  13.981     -7.2422300000000002      17.180800000000001
   323   7                 14.8803     -8.3663000000000007      16.608899999999998
   324   2      14.338900000000001     -9.4940999999999995                 16.9316
   325   7      14.804500000000001     -10.625500000000001                 16.7087
   326   7                 13.1257     -9.3864900000000002                  17.488
   327   4                  11.923     -7.7063699999999997      17.881699999999999
   328   4                 13.2515     -7.9395600000000002                 19.1053
   329   4      14.638199999999999     -6.6050800000000001      17.804300000000001
   330   4                  13.651                -6.68797      16.368500000000001
   331   2                  15.615      20.768000000000001                 15.6736
   332   2                 15.7996      21.371200000000002      14.263400000000001
   333   7                  16.247      22.754999999999999      14.494899999999999
   334   2      16.700399999999998      22.840800000000002                 15.7943
   335   7      17.329699999999999      23.768000000000001      16.300799999999999
   336   7      16.405999999999999      21.704899999999999      16.492899999999999
   337   4      16.069600000000001                 19.7743                 15.8056
   338   4      14.555099999999999      20.787800000000001                 15.9095
   339   4      14.867900000000001      21.385200000000001      13.585699999999999
   340   4      16.668700000000001      20.883500000000002                 13.7027
   341   2      19.693000000000001    -0.15246799999999999      18.784800000000001
   342   2      19.704799999999999    -0.36524899999999999      17.323499999999999
   343   7      20.432400000000001     0.78437299999999999                 16.8521
   344   2                 20.3203                 1.78007                 17.7377
   345   7      20.668399999999998                 2.92584      17.438300000000002
   346   7      19.826699999999999      1.3478600000000001      18.942799999999998
   347   4      20.496300000000002    -0.68045699999999998                 19.2257
   348   4      18.735600000000002    -0.42818299999999998                 19.2347
   349   4      18.752400000000002    -0.44502399999999998      16.926600000000001
   350   4                 20.3476                -1.19391      16.900099999999998
   351   2      6.6120999999999999      10.029999999999999      4.9147999999999996
   352   2      7.4267200000000004      8.9338099999999994      4.1388999999999996
   353   7      8.5200700000000005      8.4874100000000006      5.0508600000000001
   354   2      8.4262599999999992      9.2335799999999999      6.2207699999999999
   355   7      9.2318899999999999      9.0745000000000005      7.1322400000000004
   356   7      7.3672899999999997                 10.0661      6.3076299999999996
   357   4      5.6009399999999996                 9.74132      5.1803400000000002
   358   4      6.5327099999999998                 11.0052      4.5035999999999996
   359   4      7.9328799999999999      9.3480799999999995                 3.22289