(written by ASE)

888 atoms
9 atom types

0.0      21.553999999999998  xlo xhi
0.0      21.553999999999998  ylo yhi
0.0                  21.544  zlo zhi

Atoms # atomic

     1   2     -33.741599999999998                -11.6457                 19.5473
     2   4     -34.744999999999997     -11.583500000000001      20.053100000000001
     3   4     -33.360100000000003     -12.694100000000001                 19.6494
     4   7     -32.811799999999998     -10.778600000000001      20.324100000000001
     5   2     -32.142400000000002     -9.9639399999999991      19.477499999999999
     6   7                -31.1996     -9.1820000000000004                 19.7315
     7   7     -32.628599999999999                -10.0289                 18.2102
     8   2     -33.881999999999998                -10.8187      18.242599999999999
     9   4     -33.873699999999999                -11.3063      17.245899999999999
    10   4     -34.744100000000003                 -10.145                 18.2273
    11   2                -25.4298     -6.3592500000000003      4.9919799999999999
    12   4     -24.800799999999999     -7.1679300000000001      5.0234300000000003
    13   4     -24.923100000000002                 16.1173      5.3002700000000003
    14   7     -26.484300000000001     -6.7039600000000004      6.0706800000000003
    15   2     -27.728400000000001     -6.7282200000000003      5.4723600000000001
    16   7                -28.7227     -7.0398199999999997      6.0566399999999998
    17   7     -27.666899999999998     -6.3506900000000002      4.2040199999999999
    18   2     -26.279299999999999                -6.15998      3.7832599999999998
    19   4                -26.2791     -5.1681600000000003      3.2997999999999998
    20   4     -26.174299999999999     -6.9724399999999997      3.0469300000000001
    21   2     -26.146599999999999     -1.7128099999999999                 2.06549
    22   4     -26.794799999999999     -1.8824099999999999      1.1573500000000001
    23   4     -25.558900000000001     -2.6372399999999998      2.2823899999999999
    24   7                -27.0123                -1.52325      3.2050999999999998
    25   2     -26.958300000000001    -0.24396999999999999      3.6458699999999999
    26   7     -27.618400000000001                0.198356      4.6280799999999997
    27   7                -25.9894     0.49667499999999998      2.9988999999999999
    28   2     -25.375599999999999    -0.38748500000000002                  1.9655
    29   4                -24.3078    -0.42635400000000001                 2.14812
    30   4     -25.595099999999999    0.078259800000000004     0.94197900000000001
    31   2     -15.527799999999999      1.5560700000000001     -2.1267100000000001
    32   4     -16.035900000000002     0.55293000000000003     -2.1594199999999999
    33   4     -15.577999999999999      1.9970399999999999                -1.15117
    34   7     -16.339400000000001      2.4827599999999999     -2.9770099999999999
    35   2     -15.492900000000001      3.2096200000000001     -3.7625799999999998
    36   7                -15.8177      4.1571800000000003     -4.4005200000000002
    37   7                -14.2239      2.8202400000000001                -3.58697
    38   2     -14.148199999999999                 1.63595                -2.80132
    39   4                -13.2879                 1.85049     -2.0786199999999999
    40   4     -13.924300000000001     0.76833099999999999     -3.4658799999999998
    41   2     -20.888000000000002     -6.6209300000000004      17.107700000000001
    42   4                -20.8276     -5.7174899999999997      16.402100000000001
    43   4     -20.288900000000002     -7.4028999999999998                 16.7089
    44   7     -22.221399999999999                -7.06508      17.322500000000002
    45   2     -22.727499999999999                 -6.4074                 18.3826
    46   7     -23.910299999999999                -6.42645      18.683599999999998
    47   7     -21.803599999999999     -5.7208800000000002                 19.0703
    48   2     -20.476099999999999     -6.0375199999999998      18.548999999999999
    49   4     -20.081800000000001     -6.8884100000000004                 19.1297
    50   4     -19.836200000000002     -5.0973499999999996      18.549099999999999
    51   2     -17.186299999999999                 11.3864                 14.7402
    52   4     -16.163699999999999      11.251799999999999      14.875400000000001
    53   4     -17.429300000000001      12.346399999999999                 15.2242
    54   7     -17.853000000000002                -11.3767                 15.1729
    55   2                -18.4923                -12.0136                 14.1782
    56   7     -19.154699999999998                -13.0372      14.227399999999999
    57   7     -18.319700000000001      10.178100000000001                  12.939
    58   2     -17.564599999999999                 11.3902      13.158200000000001
    59   4     -18.049499999999998                 12.2857                 12.7515
    60   4     -16.722999999999999      11.231999999999999                 12.4757
    61   2     -20.164300000000001     -1.6363799999999999      18.008700000000001
    62   4                -20.5152    -0.59112100000000001      18.004100000000001
    63   4                  -20.98     -2.1952799999999999                  17.538
    64   7     -19.981999999999999     -2.0515699999999999      19.470400000000001
    65   2     -18.665099999999999     -1.8154399999999999      19.618500000000001
    66   7     -18.193999999999999                -1.75275      20.749600000000001
    67   7     -17.947099999999999     -1.5440700000000001      18.479299999999999
    68   2     -18.831199999999999                -1.71682                 17.3858
    69   4     -18.673300000000001     -2.6964700000000001                 16.9207
    70   4     -18.657599999999999    -0.98111400000000004      16.607299999999999
    71   2                -28.4068      6.4845300000000003     -2.3622299999999998
    72   4                -28.8307      5.5148700000000002     -1.8942600000000001
    73   4     -27.340199999999999      6.4665499999999998     -2.1966600000000001
    74   7     -28.892099999999999                 7.68649     -1.8420799999999999
    75   2     -29.830200000000001                -13.3047                -2.60928
    76   7                -30.4223                -12.2981     -2.3714200000000001
    77   7                 -29.968      7.5111100000000004     -3.8026200000000001
    78   2                -28.7563      6.6600000000000001     -3.9131999999999998
    79   4     -27.989100000000001      7.1599899999999996                -4.49749
    80   4     -28.956499999999998      5.6753499999999999     -4.3673799999999998
    81   2     -30.208200000000001                -11.7563      9.1739700000000006
    82   4     -31.046700000000001                -11.9377      8.5169300000000003
    83   4     -30.267800000000001     -12.323600000000001                 10.0871
    84   7                -30.2273     -10.332599999999999      9.4583399999999997
    85   2     -29.402100000000001     -9.7156199999999995      8.6234300000000008
    86   7     -29.435400000000001     -8.4973799999999997      8.5836299999999994
    87   7     -28.681000000000001     -10.594900000000001      7.8783700000000003
    88   2     -28.908100000000001     -11.916700000000001      8.4542599999999997
    89   4     -28.081499999999998     -12.353400000000001      9.1276100000000007
    90   4     -29.142499999999998                -12.5989      7.6380600000000003
    91   2                -18.1435     -9.9654100000000003      21.579799999999999
    92   4     -17.796700000000001     -10.103999999999999      20.561699999999998
    93   4     -18.584700000000002                -10.9137      21.894600000000001
    94   7     -19.240300000000001     -9.0021900000000006      21.546099999999999
    95   2     -18.816299999999998     -7.8230500000000003                 22.0595
    96   7     -19.520099999999999     -6.8529900000000001      22.109500000000001
    97   7     -17.550799999999999     -7.9490499999999997      22.564399999999999
    98   2                -17.1282     -9.3365799999999997      22.551200000000001
    99   4     -17.233599999999999     -9.6982300000000006                 23.5745
   100   4     -16.165500000000002     -9.4270099999999992      22.109999999999999
   101   2     -19.915900000000001                 -5.1349      8.3310399999999998
   102   4                -19.1966     -5.5404999999999998      9.0113800000000008
   103   4     -20.622199999999999     -6.0120100000000001      8.1313200000000005
   104   7     -19.263400000000001     -4.6710599999999998      7.2187700000000001
   105   2                -19.6523     -3.3512599999999999      7.0190200000000003
   106   7                -19.2866     -2.7666499999999998      6.0628500000000001
   107   7     -20.478999999999999                -2.91648      8.0371699999999997
   108   2     -20.779599999999999     -4.0060700000000002      8.9609400000000008
   109   4     -21.905899999999999     -4.0674000000000001      8.7210099999999997
   110   4     -20.455500000000001                -3.85758      9.9874299999999998
   111   2     -25.068300000000001      5.3552600000000004     -5.8649399999999998
   112   4                -24.8629      5.8692099999999998                 14.7897
   113   4                -26.0991                 5.44475     -5.6070399999999996
   114   7                -24.1874      5.9344900000000003     -4.8142699999999996
   115   2     -23.237500000000001      5.1081099999999999                -4.53932
   116   7     -22.280999999999999      5.4548500000000004                -3.85392
   117   7     -23.348299999999998      3.8793199999999999     -5.0831299999999997
   118   2     -24.524699999999999      3.9072399999999998     -5.9891199999999998
   119   4     -25.231000000000002      3.1615000000000002     -5.6248399999999998
   120   4     -24.220400000000001      3.6386699999999998                 14.6218
   121   2     -38.464500000000001                -13.6409      22.340900000000001
   122   4     -39.429600000000001                -14.1166                 22.6252
   123   4     -37.981200000000001                 -13.189                 23.2166
   124   7     -38.726199999999999                -12.6258                 21.3093
   125   2     -37.770699999999998                -12.7445                 20.3704
   126   7     -37.506599999999999     -12.031700000000001      19.421700000000001
   127   7     -36.955399999999997                -13.8833                 20.5883
   128   2                -37.4315                -14.6416      21.738600000000002
   129   4     -36.543700000000001     -14.816599999999999      22.413399999999999
   130   4     -37.993400000000001                -15.5747      21.554400000000001
   131   2                -15.7927     -9.2480600000000006                 18.1007
   132   4                -15.2531     -9.0889600000000002      17.170100000000001
   133   4                -15.1922     -9.7624300000000002      18.836400000000001
   134   7     -16.951499999999999                 -10.068                 17.7486
   135   2                -18.0945     -9.4346999999999994      18.094999999999999
   136   7     -19.229399999999998     -9.8775399999999998      18.024000000000001
   137   7     -17.837199999999999     -8.1666500000000006      18.651299999999999
   138   2     -16.433700000000002     -7.9729799999999997                 18.7212
   139   4                -16.2925     -8.0119299999999996      19.793399999999998
   140   4     -16.148099999999999     -6.9273899999999999                 18.2454
   141   2     -9.8627900000000004     -3.0360499999999999      4.9945500000000003
   142   4     -9.8170099999999998     -2.6347999999999998      3.9885700000000002
   143   4     -32.281199999999998     -2.6499299999999999                 5.59626
   144   7                -30.2056     -2.6128499999999999                 5.60222
   145   2     -30.034800000000001                -3.66432      6.4945300000000001
   146   7                -29.2576                -3.56874      7.4251399999999999
   147   7     -9.2459500000000006     -4.7845500000000003      6.2348499999999998
   148   2     -9.9579699999999995                -4.60954      4.9935700000000001
   149   4                -10.9358     -5.1207599999999998      5.0171400000000004
   150   4                -9.39968     -5.0146199999999999      4.1760999999999999
   151   2     -26.474499999999999     -14.173999999999999      12.416499999999999
   152   4                -27.0031                -13.8507      11.533799999999999
   153   4     -26.040400000000002                -15.1836                 12.3306
   154   7     -27.425799999999999                -14.1927                 13.5571
   155   2     -27.172799999999999                -13.1357      14.397399999999999
   156   7                -27.9268     -12.862399999999999      15.325100000000001
   157   7                -26.0307                -12.5693      14.069800000000001
   158   2     -25.491900000000001                -13.1046      12.850899999999999
   159   4                -24.4984      8.0113299999999992                 13.1335
   160   4     -25.406099999999999      9.3106600000000004                 12.1503
   161   2     -37.132100000000001     -3.9779200000000001      18.555599999999998
   162   4     -36.496299999999998     -4.6273200000000001                  18.052
   163   4     -38.067700000000002     -3.9494199999999999      17.894200000000001
   164   7                -36.6143     -2.6140699999999999                 18.4254
   165   2                -36.2746     -2.1661000000000001      19.649799999999999
   166   7                 -14.222                -1.08263      19.854500000000002
   167   7     -36.442399999999999     -3.1289099999999999      20.657499999999999
   168   2     -37.335299999999997     -4.1496700000000004      20.095099999999999
   169   4                -38.3142     -3.8609200000000001                 20.4572
   170   4                -37.0852     -5.1246900000000002      20.616499999999998
   171   2                -11.7652     -5.3102600000000004      14.781700000000001
   172   4                -11.3184     -6.2046299999999999                 15.2807
   173   4                 -11.532     -5.0400099999999997                 13.7843
   174   7     -11.363799999999999     -4.0929000000000002                 15.5162
   175   2                -12.5244     -3.3716400000000002      15.789400000000001
   176   7     -12.445499999999999     -2.2793999999999999      16.241299999999999
   177   7     -13.627800000000001     -4.0414899999999996                 15.4757
   178   2     -13.281700000000001     -5.4064300000000003      14.992900000000001
   179   4                -13.8149                 -5.5987      14.065300000000001
   180   4                  -13.68     -6.1357299999999997                 15.7599
   181   2     -22.093900000000001                -12.8965      5.0985500000000004
   182   4     -22.241700000000002      9.1914499999999997                 4.21814
   183   4     -22.972300000000001                -13.0222      5.7473700000000001
   184   7     -21.078299999999999      9.3769899999999993      5.8680899999999996
   185   2                -19.8933                -12.7828      5.8552099999999996
   186   7     -18.900500000000001     -12.369899999999999      6.3514099999999996
   187   7                -20.0959     -13.991400000000001      5.3336600000000001
   188   2                -21.3856                -14.2278      4.7938799999999997
   189   4     -21.733599999999999                -15.0443                 5.38551
   190   4     -21.229700000000001                -14.4391      25.255700000000001
   191   2     -24.676400000000001    -0.71328599999999998      19.202200000000001
   192   4     -23.617899999999999    -0.86997400000000003                 19.6435
   193   4                -24.9178     0.26055200000000001      18.788399999999999
   194   7                -25.7973                -1.05518                 20.1051
   195   2     -26.659300000000002                -1.86216                 19.3477
   196   7     -27.773599999999998     -2.0978699999999999      19.778500000000001
   197   7                -26.0855     -2.3719199999999998      18.225000000000001
   198   2     -24.722899999999999                -1.85955      18.215299999999999
   199   4     -24.470099999999999                -1.67778      17.147600000000001
   200   4     -24.054200000000002     -2.7332700000000001      18.448699999999999
   201   2     -21.999500000000001     -3.1956799999999999      22.138100000000001
   202   4     -21.736899999999999     -2.5369899999999999      22.986899999999999
   203   4     -21.346499999999999                -3.05843                 21.2653
   204   7     -23.263400000000001     -2.7436500000000001      21.602399999999999
   205   2     -24.166599999999999     -3.7939400000000001      21.644600000000001
   206   7     -25.252800000000001                -3.76749                 21.1449
   207   7     -23.620000000000001     -4.9011899999999997     0.67381500000000005
   208   2     -22.200399999999998     -4.6376999999999997     0.86738999999999999
   209   4     -21.685199999999998     -5.3296099999999997     0.15443100000000001
   210   4     -21.818000000000001                -5.00535                 1.81118
   211   2                -10.6645     -5.9939900000000002                 19.2333
   212   4     -9.9785400000000006     -6.2699100000000003      18.408899999999999
   213   4                  -10.09                -5.77135      20.116700000000002
   214   7                -11.6021     -7.0470899999999999      19.586099999999998
   215   2                -12.8973     -6.6477000000000004                 19.3964
   216   7     -13.858000000000001     -7.3500300000000003      19.534400000000002
   217   7                -12.9023     -5.4305700000000003     -2.7323900000000001
   218   2     -11.645200000000001                -4.77651     -2.6661299999999999
   219   4                -33.0886     -3.9367899999999998     -1.9744900000000001
   220   4     -11.225899999999999     -4.4743399999999998     -3.5825499999999999
   221   2     -21.197099999999999      11.828900000000001                  13.673
   222   4     -20.445599999999999      12.567600000000001                 13.3955
   223   4     -20.844100000000001      10.835599999999999                 13.5413
   224   7                -22.3169      11.876899999999999                 12.7263
   225   2     -23.502800000000001      11.666600000000001      13.405099999999999
   226   7     -24.552700000000002                 11.3713                 12.8401
   227   7                -23.3522                 11.6355                 14.7155
   228   2     -21.963799999999999      12.010999999999999                 15.0207
   229   4     -21.593499999999999                 11.2751      15.726000000000001
   230   4     -21.955200000000001                 12.9655                  15.472
   231   2     -36.466000000000001                 7.45275      17.423999999999999
   232   4     -36.145600000000002      8.0764999999999993      18.288399999999999
   233   4     -36.415399999999998      6.4238099999999996      17.813099999999999
   234   7     -35.370699999999999      7.6343899999999998      16.430299999999999
   235   2     -35.879399999999997      7.5325600000000001                 15.1831
   236   7                -13.7125      7.3042199999999999                 14.1281
   237   7     -37.275199999999998      7.5616899999999996                 15.1745
   238   2     -37.697499999999998      7.6955299999999998      16.552299999999999
   239   4     -38.430300000000003                 6.89154      16.677600000000002
   240   4     -38.058999999999997      8.7193299999999994                 16.7182
   241   2     -33.633699999999997     -8.7645499999999998      6.3235099999999997
   242   4     -33.778100000000002     -8.4914100000000001      7.3624099999999997
   243   4     -34.602699999999999     -8.6286199999999997      5.8450199999999999
   244   7     -33.502099999999999                -10.2667      6.2051100000000003
   245   2     -32.101500000000001                -10.4481      6.1673400000000003
   246   7                -31.5595                -11.5246      6.3528399999999996
   247   7                -31.4572     -9.2387499999999996      5.9095500000000003
   248   2     -32.422499999999999     -8.1816200000000006                 5.73916
   249   4     -32.396000000000001     -8.0156200000000002                 4.65116
   250   4     -32.140000000000001                -7.25129      6.2614599999999996
   251   2     -24.131799999999998     -7.0838299999999998      10.261100000000001
   252   4     -23.384899999999998     -6.8139900000000004                 11.0207
   253   4     -23.626200000000001     -7.5730300000000002      9.3832000000000004
   254   7                -24.7531                -5.83249      9.7478999999999996
   255   2                -25.9969     -6.1597400000000002      9.4410699999999999
   256   7     -26.772300000000001     -5.5357500000000002      8.7095000000000002
   257   7     -26.370100000000001     -7.3535300000000001      9.8919200000000007
   258   2     -25.291799999999999                -7.92082                 10.7776
   259   4     -25.384599999999999                -8.98001                 10.5557
   260   4                -25.6357                -7.59307                 11.7643
   261   2                -25.5182      9.3006200000000003      17.646699999999999
   262   4     -25.017900000000001      8.7585499999999996                 16.8537
   263   4                -26.5838      9.4212799999999994      17.553799999999999
   264   7     -24.992699999999999                 10.6899      17.530899999999999
   265   2     -24.013100000000001                  10.846                 18.4358
   266   7     -23.294799999999999                 11.8033      18.494299999999999
   267   7     -23.881900000000002                 9.85548      19.293800000000001
   268   2     -24.986999999999998      8.8828999999999994      19.063400000000001
   269   4                -25.6525      8.7954299999999996      19.871600000000001
   270   4     -24.405100000000001      7.9374799999999999      19.109999999999999
   271   2                -29.8002     -8.5451700000000006                 12.3543
   272   4                -30.1816     -8.7492699999999992                 11.3149
   273   4                -29.9892     -9.3860600000000005                 12.9899
   274   7     -30.601600000000001     -7.4615299999999998      12.767099999999999
   275   2     -29.785699999999999     -6.5356699999999996                 13.4574
   276   7     -30.170300000000001     -5.6675500000000003      14.184100000000001
   277   7     -28.396000000000001     -6.8206199999999999                 13.1396
   278   2     -28.328299999999999     -7.9680799999999996                 12.3529
   279   4                -27.5839                -8.74878                 12.7437
   280   4     -28.071000000000002     -7.6988700000000003                 11.3848
   281   2     -35.564999999999998      10.023199999999999      8.8250499999999992
   282   4     -36.558500000000002      9.8469300000000004      9.2300699999999996
   283   4     -35.683100000000003      10.436500000000001      7.8355899999999998
   284   7     -34.901400000000002     -12.821999999999999      8.7061299999999999
   285   2     -33.653100000000002                -12.7622      9.2999100000000006
   286   7     -32.785600000000002                -13.6335      9.3104899999999997
   287   7     -33.521900000000002                -11.5892                 10.0114
   288   2     -34.793700000000001                 10.8225      9.8555600000000005
   289   4                -34.5107                 11.7134      9.3320500000000006
   290   4     -35.286099999999998                 11.0145      10.814500000000001
   291   2     -27.375699999999998      6.6543400000000004      5.6070099999999998
   292   4                -28.2058      6.9820700000000002      6.3041799999999997
   293   4     -27.484100000000002      7.3013399999999997      4.7845000000000004
   294   7     -27.564900000000002      5.3213200000000001      5.0801999999999996
   295   2     -26.374500000000001      4.6212200000000001      5.1960100000000002
   296   7     -26.169599999999999      3.5785100000000001      4.5511200000000001
   297   7     -25.521699999999999      5.2342500000000003      6.0723700000000003
   298   2                -25.9376      6.6492399999999998      6.1301500000000004
   299   4     -25.364599999999999      7.2194900000000004                 5.34518
   300   4                -25.6404                 7.10182      7.0855100000000002
   301   2     -24.748000000000001      11.258900000000001      6.8089599999999999
   302   4     -25.100899999999999                 11.3024      5.7963500000000003
   303   4                -23.6557      11.273999999999999                 6.84992
   304   7     -25.076899999999998      9.8792899999999992      7.3669000000000002
   305   2     -25.584700000000002                 10.0695      8.5893200000000007
   306   7     -26.029800000000002      9.1704100000000004      9.3202200000000008
   307   7                -25.5791      11.356199999999999      8.9462100000000007
   308   2     -25.433700000000002      12.200799999999999      7.7623199999999999
   309   4     -24.784700000000001                 13.0755      7.9268000000000001
   310   4     -26.428899999999999                 12.4695      7.4473500000000001
   311   2                -20.2014     -10.596399999999999      9.8899100000000004
   312   4     -20.203499999999998                 -11.574      10.452199999999999
   313   4                -19.5626                -10.6092      8.9120600000000003
   314   7                -19.6557     -9.5277999999999992                 10.7113
   315   2                -20.4238     -8.4265500000000007                 10.5969
   316   7                -20.1297     -7.2917199999999998      10.973699999999999
   317   7     -21.574999999999999     -8.7416999999999998      9.8769500000000008
   318   2                -21.6568                -10.1267      9.6371900000000004
   319   4     -22.002300000000002     -10.217599999999999      8.6307700000000001
   320   4                -22.4861                -10.4382                  10.352
   321   2                -19.7607      4.0657300000000003     -4.6977099999999998
   322   4     -20.529599999999999      4.6219000000000001     -5.2097499999999997
   323   4     -19.243200000000002      4.7033800000000001     -3.9625599999999999
   324   7     -40.471699999999998      3.4714299999999998     -5.6187899999999997
   325   2     -40.259300000000003      2.1697899999999999     -5.3169000000000004
   326   7     -39.340200000000003                 1.44604     -5.7514200000000004
   327   7     -41.134799999999998                 1.73515     -4.4276099999999996
   328   2     -41.960700000000003      2.8385099999999999     -3.8994399999999998
   329   4     -41.790999999999997      3.0266199999999999     -2.8399000000000001
   330   4                -43.0015                 2.55654     -4.1374399999999998
   331   2     -23.709700000000002    -0.13386700000000001                 15.0786
   332   4                -23.9389     0.43671500000000002                  16.023
   333   4     -24.092099999999999     -1.1174299999999999                 15.0413
   334   7     -22.240500000000001    -0.39842499999999997                  15.365
   335   2     -21.552600000000002     0.17074900000000001      14.370799999999999
   336   7     -20.365500000000001              0.00349483      14.184200000000001
   337   7     -22.323899999999998                0.954762      13.562099999999999
   338   2     -23.755099999999999                0.680867      13.759499999999999
   339   4                -24.1873    0.048914800000000001                 12.9504
   340   4     -24.213200000000001      1.6608099999999999                 13.7821
   341   2     -28.031700000000001                 2.25528      12.227499999999999
   342   4     -27.734100000000002      3.1810299999999998                 11.7211
   343   4                -27.3626      1.4664600000000001                  12.012
   344   7                -29.3368                  1.8464                 11.7697
   345   2     -30.301300000000001      2.2511100000000002                  12.632
   346   7     -31.471499999999999      2.3416399999999999                  12.407
   347   7     -29.693999999999999      2.6475200000000001                 13.8002
   348   2     -28.215499999999999      2.5796800000000002                 13.7407
   349   4                -27.9541                 1.79342                 14.4305
   350   4                -27.8032                 3.60562                 13.8651
   351   2     -23.347799999999999                -10.2462     0.77802199999999999
   352   4     -22.974499999999999     -9.6721900000000005   -0.059566899999999999
   353   4                -23.8916     -11.207000000000001                0.570442
   354   7     -24.494499999999999     -9.4685100000000002                 1.26813
   355   2                -24.5059     -9.7301000000000002      2.5932499999999998
   356   7     -25.514900000000001     -9.4984099999999998      3.2610199999999998
   357   7     -23.401900000000001     -10.331099999999999      3.1347399999999999
   358   2     -22.441400000000002                -10.4605                 2.02901
   359   4     -22.010100000000001     -11.446099999999999      2.0722299999999998