(written by ASE)

915 atoms
9 atom types

0.0      21.712770568302616  xlo xhi
0.0      21.712770568302616  ylo yhi
0.0      21.712770568302616  zlo zhi

Atoms # atomic

     1   2      14.623100000000001                 5.04373      4.9176000000000002
     2   2      14.426500000000001      3.5427399999999998      4.9666199999999998
     3   7                 15.7692      2.9861499999999999      4.9707600000000003
     4   2      16.643699999999999      3.9709300000000001      4.5892299999999997
     5   7      17.812000000000001      3.7010000000000001      4.3199699999999996
     6   7      16.091699999999999      5.1755899999999997      4.5730300000000002
     7   4                    14.4      5.5879099999999999      5.8941499999999998
     8   4                  14.058      5.5118999999999998      4.1179300000000003
     9   4                 14.0091      3.1571099999999999      4.0447899999999999
    10   4      13.944599999999999      3.1227800000000001      5.8606499999999997
    11   2                 1.80078                  12.599      24.383900000000001
    12   2      2.8264200000000002      13.655799999999999      24.782399999999999
    13   7                 3.90828                  12.869      25.194900000000001
    14   2      3.7613799999999999                 11.5794      24.822199999999999
    15   7      4.6147499999999999      10.709899999999999                 24.8919
    16   7      2.5119199999999999                 11.3072      24.319299999999998
    17   4      1.3655299999999999                 12.7851                 23.4222
    18   4     0.99492000000000003                 12.4781      25.085599999999999
    19   4                 2.49742                 14.3146      25.612200000000001
    20   4      3.1139899999999998                 14.2349      23.885300000000001
    21   2      4.2786799999999996      3.7782399999999998                 16.4971
    22   2      5.4783499999999998      2.7723900000000001      16.365200000000002
    23   7      5.2434399999999997                 2.23949                  15.007
    24   2      4.1015100000000002      2.6867399999999999                 14.5235
    25   7                 3.68127      2.4207999999999998                 13.4427
    26   7      3.4079700000000002                  3.5589                 15.3652
    27   4      4.5623100000000001      4.8238300000000001      16.509899999999998
    28   4      3.7816999999999998      3.5027200000000001      17.370999999999999
    29   4      5.3370800000000003                 1.97062                 17.0595
    30   4      6.5616300000000001      3.1062400000000001                 16.2912
    31   2                 11.7347    -0.59772099999999995     -1.6761200000000001
    32   2      10.301299999999999               -0.121749     -1.2170700000000001
    33   7                 10.2605                 1.30677     -1.4394800000000001
    34   2      11.411199999999999                 1.69878     -2.0551599999999999
    35   7      11.698600000000001                 2.87575     -2.2240199999999999
    36   7                  12.202     0.57508199999999998                -2.40164
    37   4                 11.5771                -1.33643     -2.4727100000000002
    38   4      12.475099999999999     -1.0408999999999999    -0.95389000000000002
    39   4                 10.0939    -0.32510899999999998    -0.14066000000000001
    40   4      9.4730500000000006    -0.53647400000000001                -1.77786
    41   2      8.6650100000000005      4.8893500000000003                 18.7013
    42   2      9.4302700000000002      5.9148500000000004      17.907299999999999
    43   7      8.3126200000000008      6.7989800000000002      17.475300000000001
    44   2                 7.13239      6.2754700000000003                 17.7742
    45   7      6.0908499999999997      6.9173099999999996      17.620100000000001
    46   7      7.2408900000000003      5.1026600000000002                 18.3687
    47   4      8.8400499999999997                 5.04108      19.782499999999999
    48   4      8.9623299999999997      3.8710599999999999      18.462700000000002
    49   4      10.014900000000001                 5.41547      17.099699999999999
    50   4                 10.1318      6.4919599999999997      18.467600000000001
    51   2      10.924099999999999                 1.83185      5.2210700000000001
    52   2                 10.2943                 3.22715      5.2639199999999997
    53   7      9.7047500000000007                 3.33691      6.5742099999999999
    54   2      9.8703900000000004      2.1574599999999999      7.2158699999999998
    55   7      9.3312500000000007      1.9770700000000001      8.2675999999999998
    56   7                 10.5466      1.2386999999999999      6.5314699999999997
    57   4                 12.0185                 1.76756      5.3128399999999996
    58   4                 10.5052      1.1674599999999999      4.4756499999999999
    59   4      9.5055200000000006      3.1672699999999998      4.5025000000000004
    60   4      11.085699999999999      4.0099400000000003      5.1185099999999997
    61   2     -12.661899999999999     -8.4592799999999997      8.7418899999999997
    62   2     -11.618499999999999     -7.9868199999999998      7.7356999999999996
    63   7                -10.3322     -8.6866400000000006      8.1640200000000007
    64   2     -10.582599999999999     -9.1859000000000002      9.4072399999999998
    65   7     -9.7783499999999997     -9.7183200000000003                 10.1195
    66   7     -11.857799999999999     -9.0776299999999992                 9.76614
    67   4     -13.377599999999999     -9.2169000000000008      8.4334399999999992
    68   4     -13.203099999999999     -7.6620799999999996      9.2487999999999992
    69   4                -11.5726     -6.9105600000000003                 7.78592
    70   4                -11.6877     -8.3428500000000003      6.7411599999999998
    71   2                 11.2501      25.351400000000002                -10.5283
    72   2      11.898199999999999      23.989100000000001                -10.2629
    73   7      13.043699999999999      24.058499999999999                -11.3042
    74   2                 12.6364      24.917999999999999     -12.286799999999999
    75   7      13.146100000000001                 25.0427                -13.3405
    76   7                 11.4709      25.607800000000001     -11.912599999999999
    77   4                 11.5938      26.197500000000002     -9.9566400000000002
    78   4                 10.1685                 25.3001     -10.309200000000001
    79   4                 11.3429      23.078900000000001                -10.5471
    80   4                 12.3201                 23.8247     -9.2378800000000005
    81   2      6.3476499999999998                 14.7578      5.9366500000000002
    82   2      4.9290000000000003                 15.3452      6.2458099999999996
    83   7      4.3156299999999996                 14.3209      7.0879399999999997
    84   2                 5.17849                 13.2898      7.2165400000000002
    85   7                 4.86653                 12.2882      7.8571799999999996
    86   7      6.2518099999999999      13.338100000000001      6.4207299999999998
    87   4      7.1600599999999996                 15.1942      6.5808999999999997
    88   4      6.6326499999999999      14.760300000000001      4.8783500000000002
    89   4      4.3073899999999998                 15.6624                 5.37662
    90   4      4.9926500000000003      16.242799999999999      6.9322299999999997
    91   2     -2.4613499999999999      14.867599999999999      2.7885800000000001
    92   2     -3.4149500000000002                 14.4246                 1.64568
    93   7     -2.6325500000000002                 13.3367     0.98155499999999996
    94   2                -1.46967      13.224500000000001      1.5710999999999999
    95   7    -0.58956600000000003                 12.4283      1.2023600000000001
    96   7                -1.27199                 14.0924      2.5961799999999999
    97   4                -2.80016      14.740600000000001                 3.79976
    98   4     -2.2528999999999999      15.916499999999999      2.6968100000000002
    99   4     -3.5026600000000001                 15.1982     0.87550300000000003
   100   4     -4.4190800000000001                 14.0177      1.8636900000000001
   101   2                 3.23977      10.241400000000001      6.3690499999999997
   102   2      3.4712800000000001                 9.74648      7.8011299999999997
   103   7      2.1423399999999999      9.0047800000000002      8.0442300000000007
   104   2      1.4567000000000001      8.8293900000000001      6.8873300000000004
   105   7                0.418437      8.2737800000000004      6.6868400000000001
   106   7                 2.25109      9.3940599999999996      5.8028199999999996
   107   4      4.0868399999999996                 10.3591      5.7354900000000004
   108   4      2.7543600000000001                 11.2631      6.4068500000000004
   109   4                 3.48597      10.662800000000001      8.3627500000000001
   110   4      4.1402799999999997      8.9730399999999992      7.9340599999999997
   111   2                -5.89262                -2.52617     -2.5594100000000002
   112   2                -5.05884     -3.8360799999999999     -2.3010299999999999
   113   7     -5.9367799999999997     -4.9356600000000004                -2.78091
   114   2     -7.0239500000000001     -4.3166099999999998     -3.4051300000000002
   115   7     -7.9483100000000002     -4.9842899999999997     -3.9369200000000002
   116   7     -7.0428499999999996     -2.9786299999999999     -3.3532799999999998
   117   4     -5.3993500000000001                -1.81935     -3.2749000000000001
   118   4     -6.1838300000000004     -2.0490300000000001     -1.6551400000000001
   119   4     -4.8770499999999997     -4.0002399999999998     -1.2550699999999999
   120   4     -4.1755100000000001                -3.81684                -2.89018
   121   2      21.812999999999999      17.326699999999999      4.4231999999999996
   122   2      22.365600000000001                 15.8552      4.5934200000000001
   123   7      23.564599999999999      16.130199999999999      5.4259199999999996
   124   2      23.763999999999999                 17.4452      5.4686300000000001
   125   7                 24.6541                 17.9998      6.0852000000000004
   126   7      22.842600000000001      18.196300000000001      4.8213699999999999
   127   4                 20.8355      17.403300000000002      4.9885599999999997
   128   4                 21.5733      17.633400000000002      3.3971399999999998
   129   4      22.709499999999998      15.379899999999999                 3.61111
   130   4      21.681999999999999                 15.2195      5.1670400000000001
   131   2                 11.8863      19.688500000000001      16.252600000000001
   132   2                 11.7554      18.168099999999999                 15.8522
   133   7                 12.6439      17.941800000000001      14.690799999999999
   134   2                 13.2525      19.193300000000001      14.370799999999999
   135   7                 14.0762      19.371600000000001      13.507999999999999
   136   7      12.863200000000001      20.160799999999998      15.296900000000001
   137   4      12.299099999999999      19.825700000000001      17.258500000000002
   138   4                 10.9031      20.232900000000001      16.145499999999998
   139   4                  10.731      17.837199999999999      15.590999999999999
   140   4                 12.0738      17.536899999999999      16.734500000000001
   141   2      25.047499999999999      25.587199999999999      5.0832699999999997
   142   2                 24.8155      25.200700000000001      6.5355400000000001
   143   7      23.614100000000001      26.006799999999998      6.7899200000000004
   144   2      22.948699999999999      26.085899999999999      5.5940700000000003
   145   7                 21.7666      26.332000000000001      5.4558299999999997
   146   7      23.723400000000002      25.783799999999999      4.5881600000000002
   147   4      25.434999999999999                 24.7715      4.3987699999999998
   148   4                 25.6143      26.464700000000001      4.8965699999999996
   149   4      25.492799999999999      25.439299999999999      7.3804800000000004
   150   4      24.438500000000001                 24.1524                 6.43872
   151   2     -5.6329599999999997      16.841699999999999                -7.28925
   152   2     -4.4966299999999997                  16.907     -8.3413000000000004
   153   7     -3.3926799999999999      17.179500000000001     -7.4259300000000001
   154   2     -3.8824100000000001      18.018599999999999     -6.4552800000000001
   155   7     -3.2410100000000002      18.718499999999999     -5.7685599999999999
   156   7     -5.2647199999999996      17.952100000000002     -6.3765700000000001
   157   4     -5.5878300000000003                 15.9511     -6.6535500000000001
   158   4     -6.6514199999999999                 16.9438     -7.7382600000000004
   159   4     -4.6094900000000001                 17.7651     -9.0084400000000002
   160   4                -4.33514                  15.894     -8.8918199999999992
   161   2                -1.63818                 14.5517                  15.081
   162   2   -0.095008499999999996      14.648400000000001                 15.1028
   163   7                0.282698                 13.3843      14.336600000000001
   164   2    -0.73515299999999995      12.513199999999999                 14.4648
   165   7    -0.69905200000000001                 11.3733                 14.0084
   166   7     -1.8630100000000001                 13.0786      14.999499999999999
   167   4                 -2.1633                 15.0077                  14.231
   168   4     -2.0266000000000002      14.829800000000001      16.055800000000001
   169   4     0.42346200000000001                 14.4283      16.052800000000001
   170   4     0.37615999999999999      15.470599999999999                 14.5832
   171   2      19.505099999999999      24.928899999999999      21.628499999999999
   172   2                 20.6797      23.878599999999999      21.330500000000001
   173   7      21.222000000000001                 23.5581                 22.6204
   174   2      20.577400000000001      24.277899999999999      23.557700000000001
   175   7                 20.9556      24.364899999999999      24.719999999999999
   176   7      19.544799999999999      25.038799999999998                 23.0808
   177   4      18.479199999999999      24.497599999999998                 21.3398
   178   4      19.756599999999999      25.832799999999999      21.123100000000001
   179   4                 21.4785      24.345400000000001      20.673100000000002
   180   4      20.263500000000001      22.957599999999999                 20.7974
   181   2      16.334800000000001                 10.6173                 14.6989
   182   2      17.419699999999999                 11.7118                 15.0434
   183   7      16.933199999999999      12.989800000000001      14.542299999999999
   184   2                 15.8627                 12.7217                 13.7865
   185   7                  15.294                 13.5685      13.152100000000001
   186   7      15.416700000000001                 11.4331      13.859299999999999
   187   4                 15.7616      10.101100000000001      15.497199999999999
   188   4      16.736999999999998      9.8911300000000004      14.081799999999999
   189   4      18.319400000000002      11.475199999999999      14.489599999999999
   190   4                 17.6569                 11.7669      16.062100000000001
   191   2      15.861000000000001                 24.3992                 18.6022
   192   2                  14.846      23.381499999999999      19.125299999999999
   193   7                 15.7265                 22.2806      19.594799999999999
   194   2      16.997399999999999                 22.8261      19.873999999999999
   195   7      17.870200000000001      22.355499999999999      20.659099999999999
   196   7      17.079499999999999                  24.081      19.328199999999999
   197   4                 15.6122      25.531700000000001      18.781199999999998
   198   4                 16.1189      24.505500000000001                 17.4787
   199   4                 14.1905                 22.9406      18.396799999999999
   200   4                 14.2828      23.768599999999999      19.932700000000001
   201   2      14.117800000000001      14.512700000000001      20.241399999999999
   202   2      14.254799999999999                 14.6744      21.788799999999998
   203   7                  15.246      13.693199999999999      22.279399999999999
   204   2                 15.7409      13.053900000000001      21.216200000000001
   205   7      16.624199999999998                 12.2682      21.302099999999999
   206   7      15.026400000000001                 13.3506      20.108599999999999
   207   4      14.512600000000001      15.348599999999999      19.668800000000001
   208   4      13.103199999999999                  14.234                 19.9665
   209   4                 13.3216      14.490399999999999      22.371700000000001
   210   4                 14.5733      15.676299999999999      22.084900000000001
   211   2      19.526599999999998                 15.3172                  19.323
   212   2      20.393599999999999      14.068099999999999      19.202200000000001
   213   7      19.536200000000001                 13.3767      18.209599999999998
   214   2                 18.2362      13.662000000000001                 18.5092
   215   7                 17.2666      13.051299999999999      18.088000000000001
   216   7      18.143699999999999      14.786899999999999      19.270700000000001
   217   4                 19.6099      15.960000000000001      18.404699999999998
   218   4                 19.7836                  15.811      20.199100000000001
   219   4      20.462199999999999      13.436999999999999      20.083500000000001
   220   4                 21.3934      14.118399999999999      18.793099999999999
   221   2     -4.9051900000000002      20.081900000000001      6.3946500000000004
   222   2                -3.95539      18.892600000000002      5.9060699999999997
   223   7     -3.2631199999999998      19.526499999999999      4.7700500000000003
   224   2     -3.3021099999999999      20.831900000000001                 4.96922
   225   7                -2.79949      21.686800000000002      4.2798299999999996
   226   7                -4.19808      21.230399999999999      5.9380300000000004
   227   4     -5.1343199999999998      20.136099999999999      7.4342899999999998
   228   4     -5.7351599999999996                 20.0412      5.7483300000000002
   229   4     -4.5880299999999998                 18.1266      5.4986800000000002
   230   4     -3.1066099999999999      18.659700000000001      6.5142499999999997
   231   2                 10.8256      18.342300000000002                 22.4635
   232   2      9.3292999999999999      18.197199999999999      22.678100000000001
   233   7      9.3359000000000005      16.692699999999999                 23.0822
   234   2                 10.3774                 16.0855      22.411000000000001
   235   7                 10.4628                 14.8955                 22.2303
   236   7      11.220000000000001                 17.0578                 21.9435
   237   4                 11.3117                 18.4939                 23.4587
   238   4                 11.1074      19.053599999999999      21.684100000000001
   239   4      8.7027900000000002                 18.2029      21.828399999999998
   240   4      8.9786300000000008      18.889800000000001      23.450500000000002
   241   2      6.5126999999999997      22.363399999999999      19.424099999999999
   242   2      6.9207900000000002      23.726199999999999      19.959499999999998
   243   7      5.6943900000000003      24.167400000000001      20.697099999999999
   244   2      4.8519699999999997      23.088999999999999                 20.8171
   245   7      3.7866900000000001      23.126899999999999                 21.3475
   246   7      5.3239999999999998      21.931799999999999      20.105399999999999
   247   4      7.2304700000000004      21.547999999999998      19.570499999999999
   248   4      6.2976200000000002      22.357600000000001      18.305499999999999
   249   4      7.0442200000000001      24.449300000000001      19.145900000000001
   250   4                 7.74566                 23.7699      20.660499999999999
   251   2      19.537600000000001      20.456199999999999      1.6882200000000001
   252   2                 18.3657      19.504100000000001      1.8146599999999999
   253   7                 18.1081      19.087700000000002                0.426647
   254   2      19.106000000000002                 19.6538    -0.41318700000000003
   255   7      19.072800000000001                 19.5397                 -1.6024
   256   7                 19.9634      20.385200000000001     0.26954800000000001
   257   4      20.402100000000001      20.107600000000001                  2.2778
   258   4                 19.3582                 21.4818      1.9360299999999999
   259   4                 17.5685      20.017199999999999      2.3350200000000001
   260   4                 18.5657      18.686699999999998      2.4801600000000001
   261   2      2.4807199999999998                 11.5952                -2.87724
   262   2      2.3988100000000001                 11.3766     -1.3607100000000001
   263   7      1.9079699999999999      10.056800000000001                  -1.256
   264   2      1.9356500000000001      9.4235299999999995                -2.44191
   265   7                 1.65741      8.2677899999999998     -2.7080299999999999
   266   7      2.3401900000000002                 10.2462     -3.3912900000000001
   267   4      3.4213300000000002                 11.9566     -3.2831700000000001
   268   4                 1.72404      12.172700000000001     -3.4059900000000001
   269   4      1.6995899999999999      12.049099999999999    -0.84370900000000004
   270   4      3.4131200000000002      11.347200000000001    -0.86686399999999997
   271   2      6.4217599999999999      11.434100000000001      10.604100000000001
   272   2      7.5998599999999996                 10.5205      10.412000000000001
   273   7      7.1879200000000001      9.1865000000000006                 10.9413
   274   2      5.9577200000000001      9.3742199999999993      11.541499999999999
   275   7      5.3803000000000001      8.4216700000000007      12.011100000000001
   276   7      5.5622400000000001                 10.6418                 11.4598
   277   4      5.8836399999999998                 11.7653      9.6749799999999997
   278   4      6.6152699999999998      12.295500000000001                 11.1661
   279   4      8.4183000000000003                 10.8787                 11.0616
   280   4      7.9564899999999996      10.349299999999999      9.4227000000000007
   281   2      7.7422599999999999      6.3170099999999998      13.242599999999999
   282   2                 6.90367      5.4304300000000003                  14.141
   283   7      6.5539899999999998      4.2779699999999998                 13.2902
   284   2      7.2104200000000001      4.3554500000000003                 12.1091
   285   7      7.2010500000000004      3.5093999999999999      11.235300000000001
   286   7      7.9680900000000001      5.4837699999999998      12.043799999999999
   287   4      8.6579899999999999      6.5619800000000001                 13.7073
   288   4      7.4678000000000004                 7.33934      12.870699999999999
   289   4                 5.94278      5.8967200000000002      14.502800000000001
   290   4      7.5265500000000003      5.1631099999999996                 15.0154
   291   2      16.647600000000001      3.8809800000000001      9.8660700000000006
   292   2      16.404599999999999      3.4584999999999999      8.3851899999999997
   293   7      16.702400000000001      4.6666400000000001      7.6675399999999998
   294   2                 16.6998      5.7771699999999999      8.5370799999999996
   295   7                 16.7182      6.9268599999999996      8.1397700000000004
   296   7                 16.6678      5.3377400000000002      9.7878100000000003
   297   4                 17.5562      3.5236200000000002                 10.3865
   298   4      15.749599999999999      3.7314099999999999                  10.528
   299   4                  15.295      3.2623099999999998      8.3350899999999992
   300   4                 16.9695      2.5319799999999999      8.0247700000000002
   301   2                 19.9803      10.156000000000001      4.3503999999999996
   302   2      19.359100000000002      9.9879300000000004                 5.77346
   303   7                 18.3245      8.8842599999999994      5.5849299999999999
   304   2      18.845300000000002      8.1918199999999999      4.5227500000000003
   305   7      18.365100000000002      7.1258800000000004      4.1939399999999996
   306   7                 19.6919      8.8747900000000008                 3.70764
   307   4                 21.0688      10.355499999999999      4.2708700000000004
   308   4      19.371400000000001      10.895200000000001      3.8335300000000001
   309   4      18.925899999999999                 10.9411      6.0663499999999999
   310   4      19.950299999999999      9.7175499999999992      6.6373800000000003
   311   2    -0.19983200000000001      18.866800000000001                 12.3012
   312   2     0.12504199999999999                 20.1996                 13.1607
   313   7     0.28748800000000002      19.682600000000001      14.565300000000001
   314   2    -0.26486999999999999      18.427800000000001      14.579499999999999
   315   7               -0.307446      17.777100000000001                 15.6166
   316   7    -0.75026099999999996      18.034099999999999                 13.4154
   317   4     0.63865400000000005      18.386500000000002      11.767899999999999
   318   4    -0.96620899999999998      18.903400000000001      11.497199999999999
   319   4    -0.71975999999999996      20.866499999999998      13.172800000000001
   320   4                 1.07826                 20.7104                 12.8902
   321   2      12.232699999999999     -7.9912000000000001      16.507300000000001
   322   2      13.518599999999999     -7.6819199999999999      15.771100000000001
   323   7                 14.3637     -8.7988900000000001      16.131900000000002
   324   2                 13.8432     -9.4152900000000006                 17.2182
   325   7                 14.4703                -10.2043                 17.8552
   326   7                 12.6159     -8.9421300000000006      17.561199999999999
   327   4                  11.525     -8.5357199999999995      15.828900000000001
   328   4                 11.6503     -7.1759599999999999      16.964600000000001
   329   4      14.023999999999999     -6.7289199999999996      16.132300000000001
   330   4                 13.3377     -7.5891799999999998      14.710000000000001
   331   2                 15.8002                 21.3139      14.615399999999999
   332   2                 15.0029                 21.7986                  13.378
   333   7                 15.5433      23.141999999999999      13.114000000000001
   334   2                 16.5962                 23.3673                 13.9381
   335   7      17.321300000000001      24.359400000000001      13.834300000000001
   336   7      16.738499999999998      22.407599999999999      14.807399999999999
   337   4                 16.4651      20.434899999999999                  14.612
   338   4                 15.1563      21.239999999999998                 15.4922
   339   4      14.001200000000001      21.986699999999999                 13.6256
   340   4      15.122199999999999                 21.2849                 12.4391
   341   2                 19.0444                0.251718      17.315300000000001
   342   2      19.980899999999998               -0.208673                 16.2166
   343   7      21.034099999999999     0.82970699999999997                   16.09
   344   2      20.784700000000001                 1.81372                 17.0289
   345   7      21.325399999999998      2.8746999999999998      17.285299999999999
   346   7      19.684200000000001      1.5100800000000001      17.754000000000001
   347   4      18.990200000000002    -0.50651999999999997                 18.1313
   348   4                 18.0732     0.44792300000000002      16.958300000000001
   349   4                 19.4361    -0.25944200000000001                 15.2714
   350   4                 20.4192                -1.17896                 16.4922
   351   2      6.9701500000000003      10.025499999999999      5.6685800000000004
   352   2      7.8054800000000002      9.0811700000000002      4.7148099999999999
   353   7      8.9755699999999994      8.8397199999999998      5.5066499999999996
   354   2      9.0758600000000005      9.5964100000000006      6.6511699999999996
   355   7      10.017200000000001      9.6494800000000005      7.4233000000000002
   356   7      7.8543399999999997      10.202400000000001      6.8416100000000002
   357   4      6.1676399999999996      9.3751200000000008      6.0967500000000001
   358   4                 6.71265      11.047599999999999      5.3050899999999999
   359   4      8.1064399999999992      9.6284600000000005      3.8257500000000002