(written by ASE)

888 atoms
9 atom types

0.0      21.553999999999998  xlo xhi
0.0      21.553999999999998  ylo yhi
0.0                  21.544  zlo zhi

Atoms # atomic

     1   2     -34.125700000000002                -11.9763      18.796700000000001
     2   4     -34.598799999999997     -12.587899999999999      17.967199999999998
     3   4                -34.4559                -10.8675      18.569900000000001
     4   7     -32.680100000000003     -12.005000000000001                 18.4437
     5   2     -32.039700000000003                -12.4316                 19.5563
     6   7     -30.802099999999999                -12.4747      19.684200000000001
     7   7     -32.881900000000002                -12.8002      20.548999999999999
     8   2     -34.247700000000002     -12.491400000000001      20.200500000000002
     9   4     -34.638500000000001                -11.6868                 20.8278
    10   4     -34.790599999999998                -13.4275      20.365200000000002
    11   2     -25.315300000000001     -6.5148599999999997      8.9466999999999999
    12   4     -24.375800000000002     -6.9940899999999999      8.8738200000000003
    13   4     -25.254000000000001      16.023399999999999      9.2823399999999996
    14   7     -26.224699999999999                -7.22356      9.8222500000000004
    15   2                -27.4924     -7.2950499999999998      9.3064999999999998
    16   7     -28.404900000000001     -7.8110999999999997      9.9744200000000003
    17   7     -27.555299999999999     -6.7271900000000002      8.0721799999999995
    18   2     -26.158200000000001     -6.5714800000000002      7.6524599999999996
    19   4                -26.0229     -5.6504500000000002      7.0799000000000003
    20   4     -25.922899999999998     -7.4306700000000001      7.0261300000000002
    21   2     -27.272500000000001     -3.2090100000000001      4.6862399999999997
    22   4     -27.019300000000001     -3.4495399999999998      3.6343100000000002
    23   4     -27.556799999999999     -4.1185799999999997      5.1331499999999997
    24   7     -28.317799999999998                  -2.242      4.7568900000000003
    25   2                -27.9617                -1.28434                 5.61341
    26   7     -28.769300000000001               -0.360176      5.7816099999999997
    27   7                -26.7607                 -1.4514      6.2333800000000004
    28   2     -26.104900000000001     -2.4429699999999999                 5.39452
    29   4     -25.427299999999999     -2.9476399999999998      6.0784799999999999
    30   4     -25.594799999999999                -1.89334      4.6161500000000002
    31   2     -15.020799999999999      1.2280500000000001    -0.99217699999999998
    32   4                -15.9321     0.61185199999999995                -1.06134
    33   4                -14.9938                 1.71421   -0.040835099999999999
    34   7     -15.053100000000001                 2.23698     -2.0749200000000001
    35   2     -14.450900000000001                   1.625     -3.1684700000000001
    36   7                -14.5158      2.1028699999999998     -4.2924699999999998
    37   7     -13.848100000000001     0.45227000000000001     -2.7974700000000001
    38   2                  -13.75     0.46351900000000001     -1.3872800000000001
    39   4     -12.785299999999999     0.89623399999999998     -1.0265200000000001
    40   4                -13.7986    -0.59113499999999997     -1.1103799999999999
    41   2     -22.954799999999999     -6.1128200000000001      17.398599999999998
    42   4                -23.1753     -5.0657199999999998      17.202200000000001
    43   4                -22.4206     -6.6670699999999998                 16.5471
    44   7     -24.306699999999999     -6.6398799999999998      17.366099999999999
    45   2     -24.636700000000001     -6.8522299999999996      18.655799999999999
    46   7     -25.750900000000001     -7.1852600000000004      19.031600000000001
    47   7                 -23.695     -6.7047999999999996      19.552099999999999
    48   2     -22.455200000000001     -6.3640699999999999      18.804300000000001
    49   4     -21.723299999999998                -7.13009                 18.9513
    50   4     -22.013500000000001     -5.5079099999999999      19.322299999999998
    51   2                -18.6342      10.629899999999999      12.480499999999999
    52   4     -19.274799999999999                 10.5871      13.401400000000001
    53   4     -18.948399999999999      11.409800000000001                 11.8429
    54   7                -18.8537                -12.1555      11.747400000000001
    55   2                -17.6492                 -12.702                 11.3124
    56   7     -17.529900000000001                -13.5716      10.512700000000001
    57   7     -16.579000000000001      9.5981500000000004                 11.8193
    58   2     -17.090199999999999      10.561999999999999                 12.7921
    59   4     -16.601500000000001                 11.6273                 12.7189
    60   4     -16.786100000000001      10.144600000000001      13.781499999999999
    61   2                -18.6784     -5.0652999999999997                 17.3504
    62   4     -18.714400000000001     -5.9825499999999998                 16.6158
    63   4                -18.0472     -5.2674899999999996      18.186499999999999
    64   7     -20.032599999999999     -4.7332299999999998                 17.7774
    65   2     -20.232800000000001     -3.3746900000000002      17.641999999999999
    66   7                -21.1479     -2.8586100000000001      18.200099999999999
    67   7     -19.279900000000001     -2.8538199999999998      16.862300000000001
    68   2     -18.124099999999999     -3.7812299999999999      16.646100000000001
    69   4     -17.286799999999999     -3.3073700000000001      17.193300000000001
    70   4     -17.943300000000001     -3.8555700000000002      15.536199999999999
    71   2     -28.366299999999999      6.7339399999999996                -1.63114
    72   4     -27.701899999999998      5.8508199999999997     -1.6866099999999999
    73   4     -28.328099999999999      7.0202400000000003    -0.56452400000000003
    74   7     -29.653400000000001      6.2184499999999998     -2.0256799999999999
    75   2                -29.9375                -14.8368     -3.2686999999999999
    76   7     -30.969799999999999     -14.911199999999999     -3.9062700000000001
    77   7     -28.808499999999999      7.3367000000000004     -3.8149700000000002
    78   2     -28.017800000000001      7.8039800000000001     -2.6570100000000001
    79   4                -28.3781      8.8519400000000008     -2.3918499999999998
    80   4     -26.890000000000001                 7.74735     -2.9580799999999998
    81   2     -29.771999999999998                -13.2751      8.7169500000000006
    82   4                -28.7255     -13.216200000000001      8.4024099999999997
    83   4     -30.314499999999999                -14.0466      8.1454699999999995
    84   7     -30.460000000000001                 -12.065      8.4466199999999994
    85   2     -30.717300000000002                -11.3454      9.5977300000000003
    86   7     -31.181799999999999     -10.220700000000001      9.5479800000000008
    87   7                -30.3992                 -12.109      10.689399999999999
    88   2     -29.929300000000001     -13.434100000000001      10.228999999999999
    89   4     -30.663599999999999                -14.1579      10.534700000000001
    90   4     -28.933599999999998     -13.502000000000001                 10.8192
    91   2                -20.3276     -7.5019200000000001      22.442900000000002
    92   4                -21.1798     -8.1177299999999999      22.126000000000001
    93   4     -20.264800000000001     -7.4117800000000003      23.539100000000001
    94   7     -20.751799999999999     -6.1438199999999998                 22.0153
    95   2     -19.603300000000001     -5.5027400000000002                 21.6098
    96   7     -19.411999999999999     -4.3389899999999999                 21.4801
    97   7     -18.585000000000001     -6.4122599999999998      21.391300000000001
    98   2                -19.0746                 -7.7458      21.681999999999999
    99   4     -18.296600000000002     -8.2880900000000004      22.227799999999998
   100   4     -19.248899999999999                -8.28965                 20.7149
   101   2     -19.531700000000001     -4.0129999999999999      7.9981099999999996
   102   4     -18.590299999999999     -4.2135499999999997      8.4759700000000002
   103   4                -19.4603                -4.45404      7.0278299999999998
   104   7     -19.692799999999998     -2.6366499999999999      7.6368999999999998
   105   2     -20.812100000000001     -2.1637200000000001      8.2881699999999991
   106   7     -21.060400000000001    -0.96679199999999998      8.2517600000000009
   107   7                -21.4907     -3.1372399999999998      8.8474500000000003
   108   2     -20.769300000000001     -4.4097200000000001      8.8418799999999997
   109   4     -21.338799999999999     -5.2797400000000003      8.4159000000000006
   110   4     -20.611999999999998     -4.5388799999999998      9.9234500000000008
   111   2     -24.953600000000002                 7.89201     -5.7278500000000001
   112   4                -24.3657      7.9494499999999997      14.867699999999999
   113   4     -25.711300000000001      8.6935800000000008     -5.7264400000000002
   114   7     -23.986999999999998      8.2782999999999998     -4.6522899999999998
   115   2     -24.231400000000001      7.5554300000000003                 -3.5387
   116   7     -23.815200000000001      7.6795200000000001     -2.4304299999999999
   117   7     -25.116399999999999      6.5004600000000003                 -3.8788
   118   2     -25.346900000000002                 6.52942     -5.2690299999999999
   119   4                -26.3947      6.3354600000000003     -5.3348199999999997
   120   4     -24.720300000000002      5.7198000000000002                 15.9488
   121   2                -37.8035     -14.118499999999999                 19.0456
   122   4     -36.964799999999997                -14.7662                 18.8443
   123   4     -38.176200000000001                -13.7974      18.074000000000002
   124   7     -37.358499999999999                -12.8797      19.669499999999999
   125   2     -37.827100000000002                -12.8127      20.898700000000002
   126   7                -37.6584                -11.9192      21.678599999999999
   127   7     -38.545999999999999     -13.909800000000001                 21.2562
   128   2     -38.904699999999998     -14.622999999999999      20.033100000000001
   129   4                -39.8932     -14.257899999999999                 19.7621
   130   4     -38.898200000000003                -15.7073      20.081099999999999
   131   2     -16.099499999999999     -8.2267200000000003      17.959900000000001
   132   4                -17.0778     -7.7177100000000003      18.130600000000001
   133   4                 -15.484     -7.4633399999999996                 17.5486
   134   7                -16.2255     -9.3059799999999999      16.980499999999999
   135   2     -15.698600000000001     -10.428100000000001      17.548300000000001
   136   7                -15.7165                -11.5284      17.041699999999999
   137   7                -15.2027     -10.185700000000001                 18.7761
   138   2                 -15.539     -8.8538499999999996                 19.1767
   139   4                 -14.635     -8.3241300000000003      19.520199999999999
   140   4     -16.242999999999999     -9.0439299999999996      19.942900000000002
   141   2     -8.9292899999999999                -4.12514      6.2165800000000004
   142   4     -8.4199000000000002     -4.3253000000000004                 5.27982
   143   4     -31.184899999999999     -3.3368699999999998      6.0484999999999998
   144   7                -29.5105     -3.8060100000000001      7.2264499999999998
   145   2     -29.681799999999999     -4.6057699999999997      8.2900299999999998
   146   7                -29.2029     -4.3030499999999998      9.3842700000000008
   147   7     -9.1045300000000005     -5.5751200000000001      8.0169999999999995
   148   2     -9.8247400000000003     -5.3030600000000003      6.7372899999999998
   149   4     -10.829599999999999                -4.93832      7.0077299999999996
   150   4     -9.6229499999999994     -6.1783299999999999      6.1161599999999998
   151   2                -26.5349     -10.665699999999999                 10.9529
   152   4     -26.886099999999999     -10.877700000000001      11.932600000000001
   153   4     -27.013200000000001     -9.7904699999999991      10.495699999999999
   154   7     -27.025099999999998                -11.8809      10.105700000000001
   155   2     -25.961099999999998                 -12.382      9.4676600000000004
   156   7     -26.022300000000001                -13.3422                 8.73461
   157   7     -24.843399999999999     -11.660299999999999      9.7107299999999999
   158   2                -25.0412     -10.837400000000001      10.858000000000001
   159   4     -24.467300000000002                 11.6221                   10.73
   160   4                -24.7163      10.131600000000001                 11.7966
   161   2     -37.293199999999999     -4.6389300000000002      20.711200000000002
   162   4     -37.337800000000001                -5.40822      19.906300000000002
   163   4     -37.372399999999999     -4.9617500000000003                 21.7318
   164   7                -38.4467     -3.7576299999999998      20.525400000000001
   165   2     -38.011299999999999     -2.5418099999999999      20.056699999999999
   166   7     -17.175799999999999     -1.6613899999999999      19.636399999999998
   167   7     -36.709699999999998     -2.4204599999999998      20.104900000000001
   168   2     -36.142899999999997     -3.6470699999999998      20.636299999999999
   169   4     -35.636899999999997     -3.4730599999999998      21.579000000000001
   170   4                -35.4011                -4.02529      19.927099999999999
   171   2     -13.506500000000001     -5.2018399999999998                 14.9275
   172   4     -12.689299999999999     -5.9181699999999999      14.860200000000001
   173   4                -13.5794     -4.5692000000000004                 14.0425
   174   7     -13.216900000000001                -4.34422      16.069099999999999
   175   2     -14.382400000000001     -4.1384400000000001                 16.6859
   176   7     -14.584199999999999                -3.42353      17.656300000000002
   177   7                -15.4381     -4.8183400000000001      16.047799999999999
   178   2     -14.847799999999999     -5.8326000000000002                 15.1884
   179   4                -15.4864     -5.9377700000000004                 14.3537
   180   4     -14.751200000000001     -6.7662899999999997                 15.6991
   181   2                -22.0274                -11.4514                 2.65116
   182   4                -22.3779      9.4367900000000002                 1.81697
   183   4     -22.728400000000001     -10.608599999999999      2.7611599999999998
   184   7     -20.826599999999999      10.686500000000001      2.2570600000000001
   185   2     -19.855499999999999                -11.0962      3.1788500000000002
   186   7     -18.723600000000001                -10.6486      3.0687000000000002
   187   7     -20.299499999999998     -11.831099999999999      4.2574500000000004
   188   2     -21.715499999999999                -12.1441      3.8970199999999999
   189   4     -22.289000000000001                -11.7738      4.7492400000000004
   190   4                -21.8003                -13.2468      25.430700000000002
   191   2     -24.564800000000002                -1.28651      18.870699999999999
   192   4     -23.750699999999998     -1.7169700000000001      19.328700000000001
   193   4                -24.6678    -0.22620100000000001                 19.0121
   194   7                -25.7727                -1.95801      19.468900000000001
   195   2     -26.052299999999999     -2.9739499999999999      18.666399999999999
   196   7     -26.892299999999999     -3.8772700000000002                 18.8459
   197   7     -25.354399999999998     -2.9333100000000001      17.480899999999998
   198   2     -24.693899999999999     -1.6680999999999999      17.436399999999999
   199   4                -25.3154    -0.96082400000000001      16.825199999999999
   200   4     -23.752800000000001                -1.74719      16.839300000000001
   201   2                -22.9299                -3.36788      22.940999999999999
   202   4     -22.085999999999999     -3.7257199999999999      23.556699999999999
   203   4                -23.1891     -2.3535200000000001      23.372299999999999
   204   7                -24.1355     -4.1778000000000004      22.996500000000001
   205   2     -24.674900000000001     -4.3398700000000003      21.741499999999998
   206   7     -25.818100000000001     -4.8243400000000003      21.656099999999999
   207   7     -23.795000000000002     -3.8783599999999998    -0.72878100000000001
   208   2     -22.659500000000001     -3.2521399999999998   -0.072568900000000006
   209   4     -22.815300000000001     -2.1869000000000001    -0.27412399999999998
   210   4     -21.773299999999999                 -3.6911    -0.51074799999999998
   211   2     -10.633900000000001     -8.6393199999999997      18.689499999999999
   212   4                -10.7898     -9.7307100000000002      18.634799999999998
   213   4     -9.9228799999999993     -8.4821899999999992      19.509599999999999
   214   7     -11.997400000000001     -8.1219599999999996                 19.0244
   215   2     -12.375400000000001     -7.0812600000000003      18.238700000000001
   216   7                -13.4411     -6.5316700000000001      18.250299999999999
   217   7                 -11.353     -6.7877099999999997     -4.1619599999999997
   218   2                 -10.371     -7.8956299999999997     -4.1938500000000003
   219   4                -30.9514     -7.4691099999999997     -4.2556099999999999
   220   4                -10.7569     -8.4898000000000007     -5.0101100000000001
   221   2     -21.835000000000001                 12.4758      14.212300000000001
   222   4     -21.598700000000001      13.182700000000001                 13.4124
   223   4                -21.1357                 12.6069      14.989599999999999
   224   7                -21.6524      11.080299999999999      13.801600000000001
   225   2     -22.840499999999999                 10.4499                 13.8193
   226   7     -23.104299999999999      9.2753700000000006                 13.4884
   227   7     -23.860499999999998                 11.2277      14.322100000000001
   228   2     -23.336300000000001      12.533799999999999                 14.6516
   229   4                 -23.439                  12.776                 15.6942
   230   4     -23.748899999999999      13.280099999999999      13.930400000000001
   231   2     -35.631700000000002      7.5519499999999997                 14.8371
   232   4     -35.412100000000002      8.6178000000000008                 14.7652
   233   4     -35.054699999999997      7.1245900000000004      15.691700000000001
   234   7     -35.074599999999997      6.9138700000000002                 13.6403
   235   2     -36.103299999999997      6.5807799999999999                 12.7821
   236   7     -14.483700000000001                 6.11442      11.670299999999999
   237   7     -37.321599999999997      6.8222399999999999      13.351699999999999
   238   2     -37.135800000000003                 7.23759      14.725099999999999
   239   4     -37.325600000000001      6.3358499999999998      15.331799999999999
   240   4     -38.046599999999998      7.8718700000000004                 14.8642
   241   2     -31.785699999999999     -9.9215699999999991      4.9948499999999996
   242   4     -31.876000000000001     -9.3012899999999998      4.1206800000000001
   243   4     -31.744499999999999     -10.989699999999999      4.7006899999999998
   244   7     -32.902299999999997     -9.6875300000000006      5.8771699999999996
   245   2     -32.565300000000001     -8.8029100000000007      6.7964000000000002
   246   7                -33.3536     -8.1985100000000006      7.5049200000000003
   247   7                -31.2179                -8.59511      6.8373299999999997
   248   2     -30.587599999999998     -9.5181699999999996      5.8526899999999999
   249   4                -29.9559                -10.2554      6.3706899999999997
   250   4     -29.897200000000002     -8.9230400000000003                 5.22926
   251   2     -24.998100000000001     -4.9134200000000003                 14.0442
   252   4     -25.396999999999998     -4.3108399999999998                 14.8492
   253   4     -25.901800000000001     -5.6013099999999998                 13.8476
   254   7                -23.9238     -5.6130599999999999                 14.5991
   255   2                -22.9009     -5.5858299999999996                 13.7789
   256   7                -21.8611     -6.1679199999999996                 14.1348
   257   7     -23.148599999999998     -4.8868900000000002                 12.6334
   258   2     -24.487100000000002     -4.2806699999999998      12.732900000000001
   259   4     -24.965199999999999     -4.6022299999999996                 11.8573
   260   4                -24.3123                -3.26498                 12.8269
   261   2                 -23.308                  10.821      20.784300000000002
   262   4     -23.321400000000001      11.257400000000001      21.802499999999998
   263   4                -23.1099      9.7585499999999996      20.930099999999999
   264   7                -22.3141      11.446300000000001      19.953600000000002
   265   2     -22.976199999999999                 11.7826      18.773800000000001
   266   7                -22.3414                 12.2159      17.816199999999998
   267   7                -24.2546      11.571999999999999      18.834499999999998
   268   2     -24.665099999999999      11.083299999999999                 20.1114
   269   4     -25.404199999999999                 10.2354      19.926200000000001
   270   4     -25.175699999999999                 11.9284      20.634399999999999
   271   2     -30.208600000000001     -8.8301400000000001                 13.6557
   272   4     -30.939599999999999     -8.9949700000000004      12.805300000000001
   273   4     -30.295500000000001     -9.7128999999999994                 14.3132
   274   7     -30.640000000000001     -7.6520299999999999      14.382099999999999
   275   2                -29.7118     -6.7108100000000004                 14.2834
   276   7                -29.7865     -5.6369800000000003      14.789300000000001
   277   7                -28.6311     -7.1676599999999997                 13.5822
   278   2                -28.7242     -8.5759500000000006      13.305099999999999
   279   4     -28.069700000000001     -9.0450099999999996                 14.0639
   280   4     -28.589099999999998     -8.8002300000000009                 12.2638
   281   2     -35.484900000000003      10.470000000000001                 9.35215
   282   4     -35.415500000000002                 11.4245      9.9261999999999997
   283   4     -35.957000000000001      9.6561400000000006      9.8202700000000007
   284   7     -34.029000000000003     -11.418900000000001      8.8729399999999998
   285   2     -34.191800000000001                 -12.119      7.6872600000000002
   286   7     -33.315899999999999                -12.7776      7.1810200000000002
   287   7                -35.4405                -11.9213      7.1504899999999996
   288   2     -36.109000000000002      10.590400000000001                 7.97133
   289   4     -37.110799999999998                 10.3102      7.9142700000000001
   290   4     -35.951700000000002                 11.5946      7.6829299999999998
   291   2                -25.5822      5.7157499999999999      6.5518099999999997
   292   4                -25.7714      5.5505000000000004      7.7212300000000003
   293   4     -25.404699999999998      6.7986000000000004      6.3055399999999997
   294   7     -26.706499999999998      5.2959399999999999      5.8100699999999996
   295   2     -26.460799999999999                 4.14053      5.2357800000000001
   296   7     -27.319400000000002                 3.49777      4.7030200000000004
   297   7     -25.179300000000001      3.7608299999999999      5.3320699999999999
   298   2     -24.459299999999999      4.8524799999999999      6.0512499999999996
   299   4                -23.8277      5.3133900000000001      5.3467200000000004
   300   4                -23.6995      4.2946799999999996      6.7443400000000002
   301   2     -26.090499999999999      9.7446400000000004      5.0880599999999996
   302   4     -25.729099999999999      9.6636900000000008      4.0634600000000001
   303   4     -26.430299999999999      8.7779199999999999      5.4094300000000004
   304   7     -27.292200000000001                 10.6005                 5.31447
   305   2                -26.9863                 11.4474      6.2804099999999998
   306   7     -27.765899999999998      12.243600000000001      6.8328199999999999
   307   7     -25.693899999999999                 11.3241      6.7921500000000004
   308   2     -24.962900000000001      10.408899999999999      5.9799800000000003
   309   4                -24.5213      9.6892399999999999      6.6659899999999999
   310   4                -24.2227                 10.8528      5.3790500000000003
   311   2                -20.9788                -10.6242      9.3368099999999998
   312   4     -21.031400000000001                -11.2601      10.229100000000001
   313   4     -20.160799999999998                -10.8088      8.7489699999999999
   314   7                -20.8185     -9.3230599999999999      9.9448399999999992
   315   2     -21.860700000000001     -8.5136199999999995                 9.67258
   316   7     -21.761199999999999     -7.3016199999999998      9.8764599999999998
   317   7     -22.946400000000001                -9.18736      9.2120999999999995
   318   2     -22.323399999999999                 -10.419      8.6420700000000004
   319   4     -22.177399999999999     -10.343500000000001      7.6276400000000004
   320   4     -23.087800000000001                -11.1905      8.8198699999999999
   321   2     -17.243200000000002      4.0624900000000004                -4.24864
   322   4     -17.689900000000002                 4.85555     -4.8207800000000001
   323   4     -16.157900000000001      4.1451700000000002     -4.2115400000000003
   324   7     -39.230400000000003      2.8644599999999998     -4.9795299999999996
   325   2     -39.448300000000003      1.8464400000000001     -4.1385899999999998
   326   7     -39.565300000000001     0.71925799999999995     -4.5462100000000003
   327   7     -39.645800000000001      2.2967399999999998     -2.9012699999999998
   328   2     -39.552599999999998      3.7354400000000001     -2.9113000000000002
   329   4                -39.1387      4.1057699999999997     -1.9786300000000001
   330   4     -40.593800000000002      4.0716000000000001                -3.04657
   331   2     -22.497599999999998      3.5804100000000001      16.365600000000001
   332   4     -22.339099999999998                 4.61233      16.055499999999999
   333   4                -23.0776                 3.68798                 17.3096
   334   7     -21.250800000000002      2.7795299999999998      16.467500000000001
   335   2                -21.5824      1.4677899999999999      16.181999999999999
   336   7     -20.910499999999999     0.48381000000000002      16.316600000000001
   337   7                -22.8779      1.4208400000000001      15.694000000000001
   338   2                -23.2437      2.7905199999999999      15.286099999999999
   339   4     -24.332000000000001      2.8999700000000002                 15.1548
   340   4                -22.8752      2.9763500000000001      14.296900000000001
   341   2     -30.238900000000001      1.9098299999999999                 11.7958
   342   4     -30.053000000000001      2.0774599999999999      10.701000000000001
   343   4     -29.905999999999999     0.93211999999999995      12.063000000000001
   344   7                -31.6282                 1.96245                 12.0702
   345   2     -31.848299999999998      2.7253400000000001                 13.1746
   346   7                -32.9039      2.9979399999999998      13.763500000000001
   347   7                -30.6692      3.2885200000000001                 13.5867
   348   2     -29.620999999999999      3.0173800000000002                  12.664
   349   4                -28.7409                 2.70946      13.150600000000001
   350   4     -29.425699999999999      3.9050600000000002                 12.0977
   351   2     -25.045200000000001     -6.9445600000000001      2.9425500000000002
   352   4     -25.573899999999998     -6.0129400000000004      2.9105599999999998
   353   4                -24.0548     -6.8486599999999997      2.5480499999999999
   354   7     -25.703199999999999     -7.7895700000000003      2.0514600000000001
   355   2     -26.156099999999999     -8.9192599999999995                 2.63192
   356   7                -26.6831     -9.8446499999999997      2.0425499999999999
   357   7     -25.966799999999999     -8.8596800000000009                 3.96482
   358   2                -25.2456                 -7.6612      4.2825199999999999
   359   4     -24.402000000000001     -7.8957899999999999      4.9435500000000001