(written by ASE)

915 atoms
9 atom types

0.0      21.712770568302616  xlo xhi
0.0      21.712770568302616  ylo yhi
0.0      21.712770568302616  zlo zhi

Atoms # atomic

     1   2                 14.9686      4.7449700000000004      6.5279199999999999
     2   2                 15.5663      3.3342700000000001      6.5063500000000003
     3   7                  16.488      3.4641199999999999      5.3965100000000001
     4   2      16.464099999999998      4.6943599999999996      4.7929500000000003
     5   7      17.280899999999999      5.0140799999999999      3.9407100000000002
     6   7                 15.3353      5.3480100000000004      5.2440199999999999
     7   4                 15.4276      5.3423499999999997      7.3277900000000002
     8   4                 13.8514      4.7967399999999998      6.6797199999999997
     9   4                 14.8499      2.5473599999999998      6.1678499999999996
    10   4                 16.1279      3.1158999999999999      7.4294799999999999
    11   2                 3.45688                 12.5342      22.579999999999998
    12   2      3.9935700000000001                 13.2783      23.768999999999998
    13   7      3.8092000000000001      12.498900000000001      24.901800000000001
    14   2                 3.50237      11.223000000000001                 24.5107
    15   7      3.3990200000000002      10.282400000000001      25.297499999999999
    16   7                 3.47105                 11.0932                  23.151
    17   4      4.1551600000000004      12.498100000000001      21.690899999999999
    18   4      2.3845000000000001      12.780099999999999                 22.4298
    19   4      3.5609199999999999                  14.272      23.955400000000001
    20   4      5.0950899999999999      13.353400000000001      23.565300000000001
    21   2      1.3947000000000001                  3.4333                  15.526
    22   2                 2.47885      2.5852400000000002      16.164999999999999
    23   7      3.2019899999999999                 1.93781      14.959099999999999
    24   2                 2.74878                 2.59653      13.822900000000001
    25   7                 3.21814      2.4832999999999998                 12.7159
    26   7                 1.60808      3.2256800000000001                 14.1363
    27   4      1.4749300000000001      4.4974400000000001      15.651300000000001
    28   4     0.42687900000000001                 2.93804      15.818199999999999
    29   4      2.1445699999999999                 1.68283      16.763200000000001
    30   4                 3.36856      3.1147100000000001                 16.6203
    31   2                 11.9893    -0.45074500000000001     -1.7563200000000001
    32   2                 11.1273     0.82224299999999995                -1.77454
    33   7                 11.4801      1.5367200000000001    -0.54112199999999999
    34   2      12.319800000000001     0.73428300000000002     0.16409799999999999
    35   7      12.619199999999999     0.96780999999999995                 1.30139
    36   7      12.870100000000001    -0.34568199999999999    -0.55727000000000004
    37   4      12.488099999999999    -0.63999499999999998     -2.6968399999999999
    38   4      11.398099999999999     -1.3400300000000001     -1.5238100000000001
    39   4                 10.0642     0.64774500000000002     -1.9468300000000001
    40   4      11.374499999999999                 1.55413     -2.5663900000000002
    41   2      8.7434799999999999      5.6888300000000003                 14.8291
    42   2      7.2510199999999996      6.0605099999999998      15.129300000000001
    43   7      6.8771899999999997      5.2587299999999999      16.259399999999999
    44   2      7.8801800000000002      4.4504900000000003      16.695799999999998
    45   7      7.8393699999999997      3.7878599999999998                 17.6797
    46   7      9.0331399999999995      4.6614000000000004                 15.8864
    47   4      9.3979199999999992      6.5022599999999997                 15.0936
    48   4                 8.91784      5.0832899999999999                 13.8773
    49   4      6.6672500000000001      5.7850200000000003                 14.2674
    50   4      7.1497299999999999      7.1017599999999996                  15.427
    51   2                 10.7613      2.8583799999999999      9.0902499999999993
    52   2                 10.5151      3.8585799999999999      7.8953800000000003
    53   7      9.5104500000000005                 3.14846      7.0204399999999998
    54   2                 9.48292      1.8668800000000001      7.5473100000000004
    55   7      8.7916899999999991     0.99077099999999996      7.0546899999999999
    56   7                 10.1014      1.6664399999999999      8.7517200000000006
    57   4      10.403499999999999                 3.24681                 10.0855
    58   4                 11.7966      2.5689000000000002      9.2497600000000002
    59   4                 11.4276                 4.05307      7.3193099999999998
    60   4                 10.0625      4.7422800000000001      8.1780500000000007
    61   2     -10.449999999999999     -6.6742100000000004                 10.1914
    62   2                -11.5548     -7.2140899999999997      9.3108900000000006
    63   7                -10.9162     -8.4334900000000008      8.8639100000000006
    64   2                 -10.055     -8.9047199999999993      9.8546200000000006
    65   7     -9.6825200000000002                -10.0489      9.8641000000000005
    66   7     -9.8349299999999999     -7.8831199999999999      10.687900000000001
    67   4                -10.9659     -6.2367999999999997                 11.0512
    68   4     -9.6215100000000007     -6.1500899999999996      9.6902500000000007
    69   4                -11.6531     -6.5410700000000004      8.4804300000000001
    70   4     -12.440899999999999     -7.4515799999999999      9.7786299999999997
    71   2                 11.2689                 24.7895     -7.7458900000000002
    72   2      12.228999999999999      25.460699999999999     -6.7555399999999999
    73   7      13.398099999999999                 24.5884     -6.8231900000000003
    74   2      13.264200000000001      23.876200000000001     -7.9359700000000002
    75   7      14.079000000000001      23.002400000000002     -8.3012800000000002
    76   7      12.232699999999999      24.287600000000001     -8.7065400000000004
    77   4      10.657400000000001      25.457999999999998     -8.3697300000000006
    78   4                 10.6935      23.987100000000002     -7.3636200000000001
    79   4                 11.8889                 25.5322     -5.7194099999999999
    80   4      12.517899999999999      26.463200000000001     -7.0881800000000004
    81   2      7.7301099999999998                 14.0596      5.9467100000000004
    82   2      6.2655599999999998                 14.3431      5.9616699999999998
    83   7      5.8055300000000001      13.610900000000001      7.1326700000000001
    84   2      6.7971300000000001      13.343299999999999      7.9595000000000002
    85   7      6.7013100000000003                 13.0861      9.1415100000000002
    86   7      7.9976900000000004      13.603400000000001      7.3639299999999999
    87   4                 8.33779                 15.0214      5.7279299999999997
    88   4      8.0824800000000003      13.301299999999999                 5.25929
    89   4      5.6649599999999998                 13.8611      5.1850800000000001
    90   4      5.9747000000000003                 15.3971      5.9896399999999996
    91   2    -0.37587799999999999                 11.5816      3.9995699999999998
    92   2    0.056068300000000001      12.703799999999999      3.0515099999999999
    93   7   -0.080820500000000003                 12.1302                 1.75102
    94   2    -0.36565700000000001      10.789099999999999                 1.93771
    95   7    -0.20400799999999999                 10.0328                 1.01752
    96   7    -0.79202399999999995                 10.4757      3.1952199999999999
    97   4                -1.17998      11.758900000000001      4.7019500000000001
    98   4     0.47457300000000002                  11.234      4.5860799999999999
    99   4      1.1495299999999999      12.937900000000001      3.1101999999999999
   100   4    -0.57090399999999997      13.630100000000001      3.1525400000000001
   101   2     0.49626999999999999                 6.85954      6.9410699999999999
   102   2                 1.03009      7.8716299999999997      5.8470399999999998
   103   7     0.13897799999999999      8.9823799999999991      5.7812700000000001
   104   2    -0.62991799999999998      8.9289699999999996      6.9523999999999999
   105   7     -1.3647199999999999      9.7120899999999999      7.3935599999999999
   106   7    -0.51120699999999997      7.7030900000000004      7.5591900000000001
   107   4                 1.33501      6.6400800000000002      7.5768800000000001
   108   4   -0.058890699999999997                 5.95974      6.5231500000000002
   109   4      1.0731299999999999      7.4576399999999996      4.8197299999999998
   110   4      2.0585300000000002      8.1699000000000002                 6.24681
   111   2                -6.57822     -1.9141999999999999     -2.6069399999999998
   112   2                 -5.4554     -2.9583200000000001     -2.6001699999999999
   113   7                -6.11435     -4.0857900000000003     -3.1716500000000001
   114   2     -7.4794200000000002                -3.96949     -3.2115900000000002
   115   7     -8.2242800000000003     -4.8835899999999999     -3.2121599999999999
   116   7     -7.7994399999999997                -2.64378     -3.2039900000000001
   117   4                -6.44095                -1.19933                -3.37548
   118   4     -6.9739599999999999     -1.4773700000000001                -1.66794
   119   4     -5.1473699999999996     -3.2174700000000001                -1.55175
   120   4     -4.5658099999999999     -2.7160899999999999     -3.1400299999999999
   121   2                  21.378      18.264900000000001                  3.4859
   122   2      22.222100000000001                 16.8689      3.3046799999999998
   123   7                 23.5044                 17.3856      3.7285900000000001
   124   2      23.508199999999999      18.630500000000001      4.1247999999999996
   125   7      24.563400000000001                 19.1981      4.3847399999999999
   126   7                 22.3139      19.238700000000001      3.9918300000000002
   127   4      20.510999999999999                 18.1524      4.0838000000000001
   128   4      21.059000000000001      18.648900000000001      2.4790299999999998
   129   4      22.452300000000001      16.357700000000001                 2.31786
   130   4                 21.9559                 16.1755      4.0991499999999998
   131   2                 12.0975                 18.8994      15.470599999999999
   132   2      13.338200000000001                 19.7957      15.026999999999999
   133   7                 14.3405      18.781300000000002      14.893700000000001
   134   2      13.763999999999999                    17.5                  14.936
   135   7                 14.3575      16.542400000000001                 14.5418
   136   7      12.511699999999999      17.585100000000001      15.370100000000001
   137   4                 11.2516      18.988299999999999                 14.7827
   138   4      11.835699999999999      18.954000000000001      16.563400000000001
   139   4      13.625400000000001      20.551300000000001                 15.7646
   140   4      13.266999999999999                 20.2029      14.023999999999999
   141   2      23.764600000000002      25.813099999999999      5.1734999999999998
   142   2                 22.5745                 25.1632      5.8753700000000002
   143   7                 21.6675                 24.9283      4.7176499999999999
   144   2      22.011299999999999      25.860199999999999      3.7137199999999999
   145   7                 21.3599      25.925000000000001      2.6971500000000002
   146   7      23.167400000000001                 26.5063      4.0497300000000003
   147   4                 24.4206                 25.0245                 4.69062
   148   4      24.369499999999999      26.504200000000001      5.7660600000000004
   149   4                 22.0489      25.716699999999999      6.5973800000000002
   150   4      22.947099999999999      24.200299999999999      6.1485900000000004
   151   2     -2.7735300000000001      16.702100000000002     -5.0304399999999996
   152   2     -2.8451399999999998                  15.445     -5.8482200000000004
   153   7     -3.1456900000000001                 15.8635     -7.2271000000000001
   154   2     -3.6742400000000002      17.146000000000001     -7.1439300000000001
   155   7     -4.2575000000000003      17.670999999999999                -8.05959
   156   7     -3.4001000000000001      17.691199999999998     -5.9473700000000003
   157   4     -1.8466899999999999      17.062899999999999     -4.7798600000000002
   158   4     -3.4820799999999998      16.691099999999999     -4.2710699999999999
   159   4     -3.6448499999999999                 14.7911     -5.4707499999999998
   160   4                -1.80524      14.957700000000001     -5.8656300000000003
   161   2                -1.82213                 13.5977                 11.5358
   162   2    -0.31465700000000002                 13.8566      11.970000000000001
   163   7     0.17876700000000001      12.538500000000001      12.172599999999999
   164   2    -0.71641500000000002      11.601800000000001      11.736700000000001
   165   7    -0.49496200000000001      10.404299999999999      11.848800000000001
   166   7                 -1.8914      12.168200000000001                 11.2753
   167   4     -2.0728800000000001                  14.006      10.540699999999999
   168   4     -2.5231499999999998      13.750999999999999      12.371499999999999
   169   4    -0.26034800000000002                 14.2704                 12.9762
   170   4     0.35133199999999998                 14.4161                 11.2933
   171   2                 19.4968      25.208500000000001                 21.6616
   172   2      18.984000000000002      23.846499999999999      21.352599999999999
   173   7      18.631799999999998      23.239899999999999      22.578800000000001
   174   2      18.644300000000001      24.193300000000001      23.566600000000001
   175   7      18.230399999999999      23.982500000000002                 24.6708
   176   7      18.940300000000001      25.392600000000002                 23.0274
   177   4      19.076799999999999                 25.9985      20.990500000000001
   178   4      20.526299999999999      25.367000000000001      21.786300000000001
   179   4                 19.8964      23.325099999999999      20.891300000000001
   180   4      18.198599999999999      23.739999999999998      20.587599999999998
   181   2      17.158200000000001                 10.6197                 13.7584
   182   2      18.144300000000001                   11.42      14.593999999999999
   183   7      17.859999999999999      12.821199999999999      14.466699999999999
   184   2                 16.6111      12.851100000000001      13.888299999999999
   185   7      15.981299999999999      13.905799999999999      13.790900000000001
   186   7                 16.1877      11.658200000000001                 13.3903
   187   4                 16.5334      9.8884799999999995      14.419600000000001
   188   4      17.483699999999999      10.129200000000001                 12.8957
   189   4      19.212700000000002      11.239100000000001      14.263500000000001
   190   4                 18.1037                 11.1211                  15.638
   191   2      15.032299999999999      24.513300000000001                 20.4709
   192   2                 14.8233      25.717300000000002      19.576699999999999
   193   7                 14.3459      25.226800000000001      18.284400000000002
   194   2      14.090999999999999      23.827999999999999      18.424499999999998
   195   7      13.731999999999999                  23.166      17.481000000000002
   196   7                  14.398      23.356100000000001      19.663699999999999
   197   4                 14.4544                 24.5671      21.316500000000001
   198   4                 16.0139      24.174499999999998      20.688099999999999
   199   4                 15.6846      26.314299999999999      19.412099999999999
   200   4      13.984500000000001                 26.4086      20.006599999999999
   201   2                 13.2822      13.547599999999999      21.434899999999999
   202   2      14.403499999999999                 14.5062                 21.8536
   203   7                 15.6311      13.799899999999999      21.428799999999999
   204   2                 15.1957      12.993600000000001      20.284099999999999
   205   7                 16.0871                  12.429      19.681699999999999
   206   7      13.844799999999999      12.896800000000001                 20.2882
   207   4                 12.3515                 14.1258                 21.1967
   208   4                 13.1365                 12.7874      22.232099999999999
   209   4      14.458600000000001                 14.7416                 22.9331
   210   4                 14.4314      15.461499999999999      21.254899999999999
   211   2                 20.2685                 15.5177      19.924800000000001
   212   2      19.831900000000001      14.730700000000001      21.151499999999999
   213   7      19.254100000000001                 13.5556                 20.7041
   214   2      19.101900000000001      13.553800000000001                 19.2532
   215   7      18.606300000000001      12.719900000000001                 18.5563
   216   7      19.529299999999999      14.774900000000001      18.786300000000001
   217   4      21.376100000000001      15.370699999999999      19.668399999999998
   218   4      20.027999999999999                 16.5962      19.807700000000001
   219   4      19.190999999999999      15.297599999999999      21.778099999999998
   220   4                  20.814                 14.4901                 21.6828
   221   2                -5.23149      19.212199999999999      5.8395099999999998
   222   2     -4.2426199999999996      18.607900000000001      4.8705999999999996
   223   7                -3.29399      19.683900000000001      4.6912099999999999
   224   2     -3.4788299999999999                  20.706      5.4760799999999996
   225   7     -2.8146900000000001      21.719200000000001      5.5932000000000004
   226   7     -4.7356600000000002      20.495000000000001      6.1329500000000001
   227   4     -5.2319000000000004      18.576899999999998      6.7210400000000003
   228   4     -6.3338599999999996                 19.2151      5.6054399999999998
   229   4     -4.6578400000000002                 18.1739      3.9861599999999999
   230   4     -3.6834199999999999      17.786000000000001                 5.35806
   231   2      11.190099999999999      18.136199999999999                 21.1767
   232   2      9.8961699999999997                 18.2774      21.874300000000002
   233   7      9.4821299999999997                 16.9057      22.085999999999999
   234   2                 10.5116                 16.0593                 21.8048
   235   7                 10.4472      14.845499999999999      22.018999999999998
   236   7      11.547599999999999      16.672899999999998      21.231400000000001
   237   4                 11.9329      18.613600000000002      21.811199999999999
   238   4      11.223800000000001                  18.369                  20.058
   239   4      9.1085399999999996      18.840499999999999      21.352499999999999
   240   4      9.8639700000000001      18.791399999999999      22.878599999999999
   241   2                 5.86991                 21.9801                 20.8628
   242   2      6.9025400000000001                 22.5778      19.866900000000001
   243   7      6.0395300000000001      23.388999999999999      18.969100000000001
   244   2      4.8148400000000002                 23.5273      19.511399999999998
   245   7                 3.92658                 24.1097      19.013400000000001
   246   7      4.7372899999999998      22.891400000000001      20.694299999999998
   247   4      6.1142000000000003      22.011199999999999      21.894100000000002
   248   4      5.4962600000000004      20.971900000000002                 20.6708
   249   4      7.4008599999999998      21.831600000000002      19.285699999999999
   250   4      7.5964400000000003      23.273199999999999      20.360900000000001
   251   2      18.200600000000001      20.094899999999999     0.43734299999999998
   252   2      18.545200000000001      18.656600000000001     0.77574299999999996
   253   7                 19.2898      18.251999999999999    -0.48382900000000001
   254   2                 19.6846      19.290299999999998                -1.15846
   255   7      20.449999999999999      19.321000000000002                -2.08683
   256   7      18.981300000000001      20.430099999999999    -0.66659800000000002
   257   4      18.393899999999999                 20.7806      1.2767599999999999
   258   4                 17.1157                 20.3033     0.15865399999999999
   259   4      17.736899999999999      17.983499999999999     0.78831799999999996
   260   4      19.151199999999999      18.577100000000002                 1.66201
   261   2      2.4687700000000001                 13.1867     -5.3345500000000001
   262   2      2.0362399999999998                 14.3353     -4.3718199999999996
   263   7                 1.70869                 13.5175                -3.16533
   264   2      2.5174500000000002      12.379799999999999     -3.1797499999999999
   265   7      2.5732599999999999      11.632099999999999                -2.23685
   266   7                 3.04162      12.221299999999999     -4.4113600000000002
   267   4      3.1744699999999999                 13.6304     -6.0003099999999998
   268   4                 1.62229                 12.7325                -5.85778
   269   4      1.1649700000000001                 14.8658     -4.7127499999999998
   270   4      2.7629100000000002                 15.0799     -3.9594299999999998
   271   2      6.9797900000000004      10.350899999999999                 10.3462
   272   2      8.4083100000000002      10.360099999999999      9.7674699999999994
   273   7      9.1465800000000002      9.6850199999999997      10.832700000000001
   274   2      8.2561800000000005      9.0123499999999996                 11.6349
   275   7      8.6018100000000004      8.3208699999999993                 12.5562
   276   7      6.9726600000000003      9.1920300000000008                 11.2454
   277   4      6.1255600000000001      10.134399999999999      9.6754999999999995
   278   4      6.5906900000000004                 11.1972      10.866899999999999
   279   4      8.7449499999999993      11.438000000000001      9.5668600000000001
   280   4      8.4301399999999997      9.9236299999999993      8.7726100000000002
   281   2      8.1025399999999994      2.5316399999999999                 12.1623
   282   2      6.6320600000000001      2.3108300000000002                 12.4476
   283   7      6.0268199999999998                  1.6635                 11.2301
   284   2      7.0870899999999999                 1.55549                 10.3104
   285   7      6.9380300000000004      1.2209399999999999      9.1422699999999999
   286   7      8.3046199999999999                 1.98583      10.771599999999999
   287   4                 8.78322      2.0830199999999999                 12.9373
   288   4      8.3913499999999992                 3.57681      12.059699999999999
   289   4      5.9734600000000002      3.1139399999999999                 12.6965
   290   4                 6.53125      1.5121100000000001                 13.1967
   291   2                 15.4032      3.3379400000000001      11.117599999999999
   292   2      14.817600000000001      4.0987400000000003      9.9393799999999999
   293   7                 13.6823      4.8516399999999997                 10.5441
   294   2      13.944900000000001      4.9227400000000001      11.861499999999999
   295   7                 13.3291                 5.67727      12.518700000000001
   296   7      14.886100000000001      3.9668199999999998                  12.286
   297   4                 16.4602      3.2416499999999999      11.249599999999999
   298   4      15.117900000000001      2.2632500000000002                 11.1587
   299   4                 14.3613      3.4727100000000002      9.1617999999999995
   300   4                 15.5046      4.9001999999999999      9.5444099999999992
   301   2      18.748200000000001      8.3014100000000006      4.6426699999999999
   302   2      17.856100000000001      7.8043399999999998      5.7244799999999998
   303   7      18.398900000000001      6.3680099999999999      6.0758000000000001
   304   2      19.274699999999999      6.0531600000000001      5.1331899999999999
   305   7      19.839200000000002      5.0231899999999996      4.9450000000000003
   306   7      19.548100000000002      7.0829700000000004      4.2411399999999997
   307   4      19.432700000000001      9.1110600000000002      4.9953000000000003
   308   4      18.188800000000001      8.5376799999999999      3.6564999999999999
   309   4      16.846499999999999      7.5770900000000001      5.3338900000000002
   310   4      17.832000000000001      8.5255700000000001      6.5581100000000001
   311   2    -0.55660399999999999                 18.3172                 12.8954
   312   2     0.37157600000000002      17.502099999999999      12.000500000000001
   313   7      1.1535500000000001      16.646799999999999      12.939399999999999
   314   2     0.55124399999999996      16.734500000000001      14.180199999999999
   315   7     0.86402400000000001                 15.9671      15.077500000000001
   316   7    -0.51075499999999996                 17.5351      14.156599999999999
   317   4     -1.5926499999999999                 18.4055      12.586499999999999
   318   4   -0.070739300000000005      19.203800000000001                 13.1713
   319   4      1.0703199999999999      18.028199999999998                 11.3291
   320   4               -0.264546      16.807099999999998      11.423500000000001
   321   2                 13.6913     -7.8919499999999996      16.689800000000002
   322   2                 15.1433     -7.4092200000000004                  16.913
   323   7                 15.9862     -8.6262699999999999      16.741499999999998
   324   2                 15.1435     -9.7063199999999998      16.665099999999999
   325   7                 15.4796                 -10.849                 16.6144
   326   7      13.861700000000001     -9.3921899999999994      16.702300000000001
   327   4                 13.2807     -7.5456899999999996      15.703099999999999
   328   4      12.987500000000001     -7.6198699999999997                 17.4709
   329   4      15.339600000000001     -6.9703200000000001      17.864100000000001
   330   4      15.435700000000001     -6.7566199999999998      16.150300000000001
   331   2      16.460699999999999                 21.7744      15.601100000000001
   332   2      17.152100000000001      23.065100000000001      15.088900000000001
   333   7      17.730599999999999                 23.6266      16.301200000000001
   334   2      17.251999999999999      23.014700000000001      17.374500000000001
   335   7      17.418500000000002      23.355799999999999      18.535499999999999
   336   7      16.411799999999999      22.038799999999998                 17.0535
   337   4      17.054600000000001      20.876100000000001      15.365399999999999
   338   4                 15.4238      21.693100000000001                  15.209
   339   4      16.373999999999999      23.819299999999998      14.695600000000001
   340   4      17.912400000000002      22.746600000000001      14.381399999999999
   341   2      20.446100000000001    0.060626199999999998      17.780200000000001
   342   2      19.888400000000001                -1.17374      17.020499999999998
   343   7                 20.0123    -0.76790800000000004      15.587899999999999
   344   2      20.279499999999999     0.52367300000000006                 15.4941
   345   7                 20.1921                 1.08012                 14.4536
   346   7                 20.7072      1.0645199999999999                 16.7027
   347   4                 21.3828    -0.32797799999999999      18.165900000000001
   348   4      19.777799999999999     0.46954699999999999      18.591000000000001
   349   4      18.720800000000001                -1.34815      17.184999999999999
   350   4                 20.3642                -2.14262      17.119800000000001
   351   2                 5.85405                  10.304      5.5486500000000003
   352   2      5.6291900000000004      8.8954199999999997      4.9490600000000002
   353   7      6.6752000000000002      8.1328700000000005                 5.54962
   354   2      7.4791400000000001      8.8537700000000008      6.3639200000000002
   355   7      8.3989899999999995      8.4005200000000002      6.9339300000000001
   356   7      7.0296099999999999                 10.1883      6.2557799999999997
   357   4      4.9904000000000002                 10.5913      6.1614800000000001
   358   4      6.0404099999999996      10.982699999999999      4.6821299999999999
   359   4      5.7965400000000002      8.8476499999999998      3.8676699999999999