(written by ASE)

888 atoms
9 atom types

0.0      21.553999999999998  xlo xhi
0.0      21.553999999999998  ylo yhi
0.0                  21.544  zlo zhi

Atoms # atomic

     1   2     -33.305599999999998                -13.2721                 19.3079
     2   4     -33.454799999999999                -13.9178      18.440200000000001
     3   4     -33.847299999999997                -12.3461      19.264299999999999
     4   7     -31.884799999999998                -12.8476                 19.0947
     5   2                -31.2319                -13.0077      20.270700000000001
     6   7     -30.053999999999998                 -12.676      20.479700000000001
     7   7     -32.004600000000003     -13.516500000000001                 21.2684
     8   2     -33.301900000000003                -13.8268      20.756599999999999
     9   4     -34.107999999999997                -13.3256      21.347200000000001
    10   4     -33.508099999999999     -14.944800000000001                 20.8995
    11   2                -26.3033     -6.2636700000000003      6.4732799999999999
    12   4                -25.6004     -6.4475600000000002      7.2539199999999999
    13   4     -26.927600000000002      16.177099999999999                 6.75345
    14   7     -27.301400000000001     -7.3863399999999997                 6.45458
    15   2     -27.705400000000001     -7.5162599999999999      5.1357799999999996
    16   7     -28.591100000000001     -8.2938700000000001      4.8304600000000004
    17   7     -27.007100000000001     -6.7360100000000003      4.2812400000000004
    18   2                -25.8094     -6.2484299999999999      5.0361500000000001
    19   4     -25.581199999999999     -5.2286400000000004      4.6792199999999999
    20   4                -24.9803     -6.9327800000000002      4.9521499999999996
    21   2     -27.236899999999999     -3.3799100000000002      3.1326000000000001
    22   4     -26.877300000000002     -3.9971800000000002      3.9725999999999999
    23   4     -26.626899999999999     -3.5963500000000002      2.2708400000000002
    24   7     -27.072399999999998     -1.9487399999999999      3.5404399999999998
    25   2                -28.2867                -1.51607      4.0504300000000004
    26   7     -28.406700000000001               -0.434946      4.6155799999999996
    27   7     -29.281300000000002     -2.3889999999999998                 3.78369
    28   2     -28.738299999999999                -3.48543      2.9438599999999999
    29   4     -29.129200000000001     -3.4476399999999998      1.9370400000000001
    30   4     -29.236899999999999                -4.44414      3.3475000000000001
    31   2                -15.7265      1.6003499999999999     -1.8077799999999999
    32   4     -16.127400000000002     0.49823899999999999                -1.68154
    33   4     -16.170400000000001                 2.33785     -1.1632899999999999
    34   7                -16.1694      1.9594800000000001     -3.1713399999999998
    35   2     -15.128399999999999      1.8407199999999999     -3.9929100000000002
    36   7                -15.2387      1.9724299999999999     -5.1968699999999997
    37   7     -13.934200000000001                 1.62974     -3.3314900000000001
    38   2                -14.2088      1.6934100000000001                -1.91919
    39   4                -13.6983                 2.62121     -1.5143899999999999
    40   4                -13.7143     0.82248500000000002     -1.4620500000000001
    41   2     -22.317299999999999     -5.9410299999999996      16.683199999999999
    42   4                -21.8202     -4.9307400000000001                 16.7622
    43   4     -21.996600000000001                -6.53085                 15.7729
    44   7     -23.793800000000001     -5.8132099999999998      16.509899999999998
    45   2     -24.355599999999999     -6.4461000000000004                 17.5808
    46   7     -25.545999999999999     -6.4172799999999999      17.697700000000001
    47   7                -23.5017     -7.0349899999999996                 18.3261
    48   2     -22.147099999999998     -6.7509100000000002      17.919499999999999
    49   4     -21.649999999999999     -7.7751599999999996      17.769100000000002
    50   4     -21.530999999999999                -6.22004      18.682200000000002
    51   2                -16.2623                 11.8787                 13.9208
    52   4     -16.162600000000001      12.958500000000001                 13.6031
    53   4     -15.832700000000001      11.781599999999999      14.831300000000001
    54   7                -15.6478                -10.5441                 12.9396
    55   2                -16.4983                -11.4947                 12.6775
    56   7     -16.181799999999999     -12.563599999999999                 12.1107
    57   7                -17.7393                 10.2486      13.078799999999999
    58   2     -17.762699999999999      11.482100000000001                 13.8652
    59   4     -18.216000000000001                 11.1942      14.779400000000001
    60   4     -18.467099999999999      12.168699999999999                 13.2898
    61   2                 -18.573     -1.7037100000000001      17.529399999999999
    62   4     -17.908899999999999                -1.34195      18.353300000000001
    63   4     -18.186399999999999                -1.39774                 16.5168
    64   7     -19.900400000000001     -1.3223100000000001      17.758800000000001
    65   2                -20.7334     -2.4278200000000001                 17.9466
    66   7                -21.8993     -2.3845100000000001                 18.1294
    67   7     -20.019600000000001     -3.5841799999999999                 17.8932
    68   2                -18.5364     -3.2126399999999999      17.709299999999999
    69   4     -18.075500000000002     -3.7493099999999999      16.830500000000001
    70   4     -18.061900000000001     -3.6095899999999999                  18.561
    71   2                -28.7212      5.9971899999999998    -0.99405600000000005
    72   4     -28.295000000000002      5.2569299999999997    -0.28953699999999999
    73   4     -28.896899999999999      6.9206799999999999    -0.46266200000000002
    74   7     -29.793399999999998      5.4646800000000004                -1.77237
    75   2     -29.425599999999999     -16.122699999999998     -3.0581299999999998
    76   7     -30.080200000000001     -16.747299999999999                -3.89392
    77   7     -28.273499999999999      6.0800900000000002     -3.3653499999999998
    78   2     -27.617000000000001      6.4643300000000004     -2.1019000000000001
    79   4     -27.530200000000001      7.5407599999999997     -2.0954299999999999
    80   4     -26.644600000000001                 5.92814     -1.8853599999999999
    81   2     -29.136600000000001                -12.2567      7.5848599999999999
    82   4                -28.1402                  -12.59      7.1897500000000001
    83   4     -29.922000000000001     -12.442600000000001      6.8294300000000003
    84   7     -28.905000000000001                -10.8072      7.8147700000000002
    85   2                -28.4925     -10.758800000000001      9.1309699999999996
    86   7     -28.204999999999998     -9.7135800000000003      9.7070900000000009
    87   7     -28.670999999999999     -11.867100000000001      9.8018000000000001
    88   2                -29.3812     -12.852600000000001      8.9565800000000007
    89   4     -30.408899999999999     -12.959099999999999      9.3045500000000008
    90   4     -28.922899999999998     -13.897500000000001      9.0531199999999998
    91   2     -18.404199999999999     -8.8596000000000004      22.309000000000001
    92   4     -18.240500000000001     -9.7300500000000003                 21.6264
    93   4     -18.426600000000001     -9.1543100000000006                  23.323
    94   7     -19.688600000000001     -8.2971000000000004      22.100999999999999
    95   2     -19.571200000000001                -7.22255      21.278400000000001
    96   7     -20.507400000000001     -6.6001399999999997                  20.837
    97   7     -18.240600000000001     -6.9467800000000004      21.162199999999999
    98   2                -17.4129     -7.6793500000000003      22.058499999999999
    99   4     -17.125699999999998     -7.1289400000000001      22.968499999999999
   100   4     -16.435600000000001     -7.9534000000000002      21.638300000000001
   101   2     -19.790600000000001                -4.19015      8.8161500000000004
   102   4     -19.416499999999999     -4.3921099999999997      9.8406900000000004
   103   4                -19.7012     -5.1144600000000002      8.3513300000000008
   104   7                -18.8751     -3.2294900000000002      8.1028199999999995
   105   2     -19.610299999999999     -2.0839699999999999      7.8821399999999997
   106   7     -19.110299999999999     -1.1398900000000001                 7.26187
   107   7     -20.881900000000002                -2.11999      8.3650199999999995
   108   2                -21.1372     -3.5117600000000002      8.6770700000000005
   109   4     -21.872699999999998                -3.84355      7.9292999999999996
   110   4     -21.620799999999999     -3.4494600000000002      9.6293100000000003
   111   2                -24.0732      7.7282999999999999     -6.0100300000000004
   112   4                -23.5459      7.3373100000000004      14.654199999999999
   113   4                -24.3018      8.7804699999999993     -6.2013299999999996
   114   7     -23.046399999999998      7.6841600000000003     -4.9494199999999999
   115   2     -23.540600000000001      6.9192200000000001     -3.8919700000000002
   116   7                -22.8796      6.7368300000000003     -2.8712200000000001
   117   7     -24.745799999999999      6.4074400000000002                -4.09422
   118   2     -25.204699999999999                 6.84314                -5.43405
   119   4     -26.139800000000001                 7.44597     -5.3046100000000003
   120   4     -25.441500000000001      5.9436600000000004                 15.5312
   121   2                -37.5334     -12.622299999999999                  23.512
   122   4     -38.551499999999997     -12.537000000000001                 23.9346
   123   4     -36.730600000000003                -12.8848      24.260300000000001
   124   7     -37.260800000000003                -11.3607                 22.8903
   125   2     -37.010199999999998                -11.5533                 21.5017
   126   7                -36.6402     -10.622199999999999      20.805399999999999
   127   7     -37.219900000000003                -12.8482      21.180599999999998
   128   2     -37.679099999999998                 -13.609      22.351400000000002
   129   4     -37.086300000000001     -14.549200000000001      22.412800000000001
   130   4     -38.758899999999997     -13.969200000000001      22.245000000000001
   131   2     -16.518999999999998     -6.7742699999999996      18.666399999999999
   132   4                -15.9903     -6.6181299999999998                 19.6907
   133   4     -17.373200000000001     -6.1817099999999998      18.437799999999999
   134   7     -17.047999999999998     -8.1164500000000004      18.830300000000001
   135   2     -17.099900000000002     -8.7092700000000001      17.605699999999999
   136   7     -17.786000000000001     -9.6615199999999994      17.252700000000001
   137   7     -16.308700000000002     -7.9246999999999996                 16.7319
   138   2     -15.537800000000001     -6.9449800000000002                 17.5504
   139   4                -15.4689     -6.1355399999999998      16.909700000000001
   140   4                -14.6013     -7.3461699999999999      17.884799999999998
   141   2                -10.0641     -4.2034799999999999      5.4202300000000001
   142   4     -9.8356200000000005     -3.8017099999999999      4.3386899999999997
   143   4     -32.537300000000002     -3.7902499999999999      5.7915700000000001
   144   7     -30.719899999999999     -3.7533500000000002      6.4421999999999997
   145   2     -29.757100000000001     -4.7145299999999999      6.6419300000000003
   146   7     -28.767900000000001     -4.4566100000000004      7.3761000000000001
   147   7     -8.5524799999999992                -5.92265      6.1479900000000001
   148   2     -9.8488500000000005     -5.7488900000000003      5.4787600000000003
   149   4                -10.5588     -6.3368900000000004      6.0307500000000003
   150   4     -9.7663399999999996     -6.1510199999999999      4.4946900000000003
   151   2                -25.8367                -12.7377      12.180099999999999
   152   4                -25.8215                 -11.794      12.722200000000001
   153   4     -26.572800000000001                -12.5779                 11.3848
   154   7     -26.331600000000002                -13.7813                 13.0425
   155   2     -25.558499999999999     -14.930099999999999                 12.9313
   156   7     -25.882100000000001     -16.026599999999998      13.364100000000001
   157   7     -24.387599999999999     -14.606199999999999      12.279400000000001
   158   2     -24.425799999999999                -13.3169                 11.7143
   159   4                 -24.381      8.1118100000000002      10.573499999999999
   160   4     -23.498699999999999      8.7422299999999993      12.058400000000001
   161   2     -35.977800000000002     -4.2703699999999998      19.880600000000001
   162   4                 -36.381     -5.2451299999999996      19.698399999999999
   163   4     -35.923999999999999     -3.9882399999999998                  20.901
   164   7     -36.695099999999996     -3.1892299999999998                 19.1477
   165   2     -35.831200000000003     -2.3981300000000001      18.523499999999999
   166   7                -14.5997     -1.4512499999999999      17.783000000000001
   167   7                -34.5167     -2.8192699999999999                 18.7043
   168   2                -34.5792     -4.2170800000000002      19.269100000000002
   169   4                -33.7727     -4.3659100000000004      19.983000000000001
   170   4                -34.4191                -4.99038      18.494299999999999
   171   2                -13.2346     -6.6027399999999998                 13.3178
   172   4     -12.750999999999999     -7.2549999999999999                 12.5733
   173   4                -14.1218     -6.0411900000000003                 12.9084
   174   7                -12.1206     -5.8294800000000002      13.786899999999999
   175   2     -12.097099999999999     -5.8120399999999997      15.132099999999999
   176   7     -11.507300000000001     -4.9890999999999996                 15.8344
   177   7     -12.941700000000001     -6.7566600000000001      15.643000000000001
   178   2                -13.7271     -7.4119200000000003                 14.5663
   179   4     -14.819900000000001     -7.3546899999999997                 14.6821
   180   4                -13.3589     -8.4090199999999999                 14.6722
   181   2     -22.232299999999999                -11.6882      5.6187899999999997
   182   4                 -22.695                 10.8002      6.0867800000000001
   183   4     -21.795400000000001                -12.4015      6.3814700000000002
   184   7                -21.1175      10.506600000000001      4.8527300000000002
   185   2     -21.257899999999999     -11.426299999999999                 3.57212
   186   7                -20.4922                -11.1472      2.7169699999999999
   187   7     -22.447500000000002                 -12.093      3.3919100000000002
   188   2                -23.2271                -12.2293      4.5923999999999996
   189   4                -23.4376                 -13.323      4.6943900000000003
   190   4                -24.1417     -11.608700000000001      26.051500000000001
   191   2     -24.980399999999999    -0.91109099999999998                 18.9377
   192   4     -23.931699999999999    -0.73865000000000003      19.367999999999999
   193   4     -25.432500000000001               0.0660076      18.881399999999999
   194   7     -25.721399999999999     -1.8153600000000001      19.742899999999999
   195   2     -26.396799999999999                -2.71807                 18.8582
   196   7     -27.220400000000001     -3.5103399999999998      19.296900000000001
   197   7                -26.0898                -2.46976      17.585100000000001
   198   2     -24.845199999999998     -1.7059500000000001      17.622699999999998
   199   4     -24.748999999999999     -1.0547800000000001      16.681799999999999
   200   4                -24.0382     -2.4791099999999999                 17.6143
   201   2     -23.284500000000001     -2.3437700000000001      22.265699999999999
   202   4     -22.949999999999999     -1.9402299999999999      23.236499999999999
   203   4     -23.450600000000001     -1.5925400000000001                 21.4956
   204   7     -24.464200000000002     -3.1196000000000002      22.575600000000001
   205   2                 -24.477     -4.2351900000000002      21.959499999999998
   206   7                -25.4953     -4.9708899999999998      21.999600000000001
   207   7     -23.294499999999999     -4.5254200000000004                -0.23127
   208   2     -22.334199999999999     -3.4180000000000001                0.100859
   209   4                -21.8246     -3.1653799999999999    -0.85398799999999997
   210   4     -21.588999999999999     -3.7450199999999998                0.818357
   211   2     -10.779500000000001     -8.6126900000000006      19.884599999999999
   212   4                -10.8644     -9.5875400000000006      19.333300000000001
   213   4                -9.81236     -8.6123600000000007      20.390999999999998
   214   7                -11.8139     -8.5420700000000007      20.833400000000001
   215   2                -12.7098     -7.5329800000000002      20.434699999999999
   216   7     -13.799099999999999     -7.3675100000000002      20.863800000000001
   217   7     -12.307399999999999     -7.0807099999999998     -2.3363900000000002
   218   2     -10.888500000000001     -7.3851399999999998     -2.5065400000000002
   219   4     -31.849299999999999     -6.5230899999999998     -2.2357499999999999
   220   4     -10.714399999999999     -7.5707199999999997     -3.5495100000000002
   221   2     -23.314800000000002                 12.9285                 14.4903
   222   4                -23.2196                  13.824                 13.8224
   223   4                -23.8962                 13.1282      15.390700000000001
   224   7     -22.002500000000001                 12.4588      14.892300000000001
   225   2                -21.7211      11.220000000000001      14.242699999999999
   226   7                -20.7133      10.526899999999999                 14.5555
   227   7     -22.712800000000001      10.912000000000001      13.405099999999999
   228   2     -23.950299999999999                 11.6831                 13.7096
   229   4     -24.677800000000001      11.162100000000001      14.366400000000001
   230   4                -24.3703      11.939399999999999                 12.6936
   231   2     -36.891100000000002      8.2548399999999997      17.282800000000002
   232   4     -36.708500000000001                 9.09938                 17.9148
   233   4     -37.161099999999998      7.3249500000000003      17.828199999999999
   234   7     -35.653799999999997      8.0584199999999999      16.572099999999999
   235   2     -35.939700000000002      7.6712400000000001      15.318199999999999
   236   7     -13.558999999999999      7.1303999999999998      14.575200000000001
   237   7     -37.261200000000002      7.8021399999999996      15.091699999999999
   238   2     -37.835099999999997      8.5476500000000009                 16.1661
   239   4     -38.777500000000003      8.1637900000000005      16.354199999999999
   240   4     -37.759799999999998      9.6058000000000003      15.848000000000001
   241   2     -34.146799999999999     -9.2052800000000001      8.9170999999999996
   242   4                -34.5747     -8.2633700000000001      8.5074299999999994
   243   4     -34.879300000000001     -9.5702400000000001      9.6328800000000001
   244   7     -32.894399999999997     -8.8086300000000008      9.6581899999999994
   245   2     -31.882000000000001     -9.3010400000000004      8.9511299999999991
   246   7     -30.699200000000001                 -9.0381      9.2146699999999999
   247   7     -32.252000000000002     -10.036799999999999      7.8445099999999996
   248   2     -33.762599999999999                -10.2066      7.8963900000000002
   249   4     -33.977200000000003                -11.2364      8.1912400000000005
   250   4     -34.134300000000003     -9.9772200000000009      6.8907400000000001
   251   2                -23.8675     -5.5326399999999998                 10.3408
   252   4     -23.522300000000001     -4.5060700000000002                 10.6326
   253   4     -23.342600000000001     -5.9068399999999999      9.5040300000000002
   254   7     -25.259499999999999                -5.38504      9.7997399999999999
   255   2     -26.069099999999999     -6.3097000000000003                 10.2857
   256   7                -27.2407     -6.4788300000000003      9.9748300000000008
   257   7     -25.426300000000001     -7.1671899999999997                 11.1713
   258   2     -24.067299999999999     -6.5456599999999998      11.408099999999999
   259   4                -23.4071     -7.4977799999999997                 11.3438
   260   4                  -24.09     -6.0940700000000003      12.494300000000001
   261   2                -25.0169      9.5671300000000006                 19.5443
   262   4     -24.445799999999998      8.6494400000000002      19.656199999999998
   263   4     -26.052499999999998      9.5062999999999995      19.961400000000001
   264   7     -25.251200000000001                 9.89893      18.057300000000001
   265   2                -24.2805      10.780900000000001      17.649899999999999
   266   7     -24.081399999999999      10.994899999999999      16.479500000000002
   267   7     -23.575900000000001                  11.208                 18.7789
   268   2     -24.268699999999999      10.852399999999999      19.953700000000001
   269   4     -25.075700000000001                 11.5541      20.085000000000001
   270   4     -23.496500000000001      10.796099999999999                 20.6921
   271   2     -30.654599999999999     -8.6621100000000002                   12.58
   272   4     -31.095700000000001     -8.4137599999999999      11.630800000000001
   273   4     -31.127600000000001     -9.5191599999999994                 13.0786
   274   7     -30.957799999999999     -7.4043099999999997      13.420199999999999
   275   2     -30.025300000000001     -7.5214499999999997                  14.414
   276   7     -29.986799999999999                -6.91594                 15.4656
   277   7                -28.9711     -8.2072000000000003      14.007099999999999
   278   2     -29.172799999999999                -8.64297      12.673999999999999
   279   4                -28.7315     -9.5774399999999993                 12.5639
   280   4     -28.836400000000001     -7.9278000000000004                 11.9229
   281   2     -33.045099999999998                 10.1144      12.275700000000001
   282   4     -33.167499999999997                 11.2005                 12.3696
   283   4     -32.287199999999999      9.7648399999999995      12.982100000000001
   284   7     -32.463000000000001     -11.733499999999999                 10.9681
   285   2     -33.090200000000003     -12.784000000000001                 10.3973
   286   7     -32.770400000000002                -13.2728      9.3559199999999993
   287   7     -34.089700000000001                -13.2203                 11.1335
   288   2     -34.381999999999998      9.2638300000000005      12.205299999999999
   289   4     -34.514899999999997      8.7159499999999994                 13.0936
   290   4     -35.243600000000001      9.9612400000000001                 12.0467
   291   2     -25.923100000000002      6.4774099999999999      5.5473400000000002
   292   4     -25.845500000000001      6.6232300000000004      6.6916700000000002
   293   4     -25.851099999999999      7.4704899999999999      4.9816799999999999
   294   7     -27.190200000000001      5.9409599999999996      5.2299699999999998
   295   2     -27.026900000000001                 4.79941      4.5401999999999996
   296   7                -28.0059                 4.23468      4.0680699999999996
   297   7     -25.779199999999999      4.3882099999999999      4.3745799999999999
   298   2     -24.934799999999999      5.3812499999999996      5.1222500000000002
   299   4     -24.189499999999999      5.7382099999999996                 4.41953
   300   4     -24.335000000000001      4.9014499999999996      5.9311100000000003
   301   2     -25.487400000000001      12.099299999999999      7.6220999999999997
   302   4     -26.463200000000001                 12.5825      7.7826000000000004
   303   4     -24.822299999999998                   12.59      6.9495100000000001
   304   7     -25.721699999999998                 10.7064      7.0607899999999999
   305   2                -25.6707      9.8912999999999993      8.1104900000000004
   306   7     -25.845500000000001      8.6751400000000007      8.0209899999999994
   307   7     -25.387599999999999                 10.5124      9.2942400000000003
   308   2                -24.8338      11.800599999999999      8.9383900000000001
   309   4     -23.707000000000001      11.680099999999999      8.8639799999999997
   310   4                -25.1403      12.573399999999999      9.7076499999999992
   311   2     -20.292100000000001     -10.853999999999999      9.2184600000000003
   312   4     -19.510200000000001     -10.372999999999999      8.6005199999999995
   313   4     -20.721800000000002     -11.711499999999999      8.6734299999999998
   314   7     -21.278300000000002     -9.8101299999999991      9.4537200000000006
   315   2     -20.997199999999999                -9.15489      10.654999999999999
   316   7     -21.509899999999998     -8.2215699999999998                   11.15
   317   7                -19.9621     -9.8299400000000006                 11.3012
   318   2     -19.674800000000001     -11.023400000000001      10.581799999999999
   319   4     -19.972799999999999                -11.8995      11.159800000000001
   320   4                -18.5428     -11.131600000000001      10.499599999999999
   321   2     -19.639900000000001      4.3678299999999997     -4.0505599999999999
   322   4     -20.245200000000001      5.2471699999999997                 -4.2824
   323   4     -18.781500000000001      4.6161199999999996     -3.4019699999999999
   324   7     -40.637700000000002                 3.71828     -5.2506500000000003
   325   2     -40.478299999999997      2.3829199999999999     -5.0165899999999999
   326   7     -39.787999999999997      1.6598299999999999     -5.7313000000000001
   327   7     -41.114199999999997      1.9933799999999999                -3.87581
   328   2     -41.886800000000001                  3.2014     -3.4370799999999999
   329   4     -41.939100000000003      3.2231900000000002     -2.2958699999999999
   330   4     -42.962000000000003      3.1187499999999999                 -3.7578
   331   2     -24.286799999999999      2.3065500000000001                 14.1473
   332   4                -24.8536                 1.51712      13.787000000000001
   333   4     -24.972200000000001      3.1771500000000001                 14.0473
   334   7     -23.063800000000001      2.5172699999999999      13.351000000000001
   335   2     -21.966000000000001      2.0554600000000001                 13.9872
   336   7     -20.835000000000001      2.1550099999999999                 13.5503
   337   7     -22.293199999999999                 1.59978      15.217599999999999
   338   2     -23.681799999999999      1.9920199999999999                 15.4734
   339   4                -23.4269      2.9192200000000001      16.099299999999999
   340   4                 -24.148                 1.26389      16.017499999999998
   341   2     -29.746300000000002      1.3342400000000001      11.085699999999999
   342   4     -29.692599999999999                 1.45259      9.9962900000000001
   343   4     -28.982099999999999                0.512714      11.391299999999999
   344   7                -31.1343                0.755629      11.178100000000001
   345   2     -31.834199999999999      1.4928999999999999                 12.0487
   346   7     -32.996099999999998      1.2705500000000001      12.364699999999999
   347   7     -31.110900000000001      2.4791599999999998                 12.6181
   348   2     -29.833500000000001      2.5560800000000001                 11.9032
   349   4                -29.0366      2.7220499999999999      12.675800000000001
   350   4     -29.879799999999999                 3.40307      11.307700000000001
   351   2     -23.227799999999998     -8.0014400000000006     0.69146399999999997
   352   4     -22.919499999999999     -6.9355099999999998     0.68951099999999999
   353   4                -23.2986     -8.3843700000000005    -0.38499100000000003
   354   7                -24.5624     -8.1899899999999999                  1.2564
   355   2     -24.409500000000001     -9.0502800000000008                   2.395
   356   7     -25.355599999999999     -9.3405900000000006      3.1036700000000002
   357   7     -23.143599999999999     -9.4671000000000003                 2.54697
   358   2     -22.316099999999999     -8.8894800000000007      1.5738000000000001
   359   4     -21.830200000000001     -9.6527200000000004     0.99588900000000002