(written by ASE)

915 atoms
9 atom types

0.0      21.712770568302616  xlo xhi
0.0      21.712770568302616  ylo yhi
0.0      21.712770568302616  zlo zhi

Atoms # atomic

     1   2      14.500400000000001      4.0609599999999997      6.3045999999999998
     2   2                 15.1127      2.7341199999999999                 5.84795
     3   7      16.183599999999998      3.0590999999999999                 4.96455
     4   2      16.295200000000001                 4.37934      4.8846999999999996
     5   7                 17.1252      4.8689799999999996      4.1589499999999999
     6   7                 15.2706      5.0347499999999998      5.5133799999999997
     7   4      14.782500000000001      4.3329899999999997      7.3407999999999998
     8   4      13.402799999999999      4.1564500000000004      6.1047500000000001
     9   4                 14.3963      2.0905399999999998      5.3549899999999999
    10   4                 15.4596      2.0952299999999999      6.6844700000000001
    11   2      3.7570600000000001                 12.6774      23.268999999999998
    12   2                 3.72004                 13.9328      24.126100000000001
    13   7      3.2236400000000001                 13.5025                 25.3569
    14   2      3.1075900000000001      12.131600000000001      25.399100000000001
    15   7      2.6710699999999998      11.589700000000001      26.389700000000001
    16   7      3.5456099999999999                 11.5824      24.229900000000001
    17   4      4.7029300000000003      12.535600000000001                 22.7471
    18   4      2.9075700000000002      12.710699999999999                 22.5808
    19   4      3.0113300000000001                 14.7014      23.724499999999999
    20   4      4.6768700000000001      14.428000000000001      24.277799999999999
    21   2                 3.02129      3.2029000000000001      16.296900000000001
    22   2      4.1856799999999996      2.2766700000000002                 15.8886
    23   7                 4.55863      2.7343799999999998                 14.5631
    24   2      3.5392000000000001      3.4375499999999999                 14.0428
    25   7      3.3879000000000001      3.8950100000000001      12.942299999999999
    26   7      2.5309200000000001      3.6898300000000002                 15.0101
    27   4      3.3073999999999999      4.0744600000000002      16.894400000000001
    28   4      2.1541600000000001      2.9009200000000002                 16.8231
    29   4                  4.0404                  1.1348                 15.8621
    30   4      5.0725899999999999      2.4380500000000001      16.538499999999999
    31   2      11.554500000000001    -0.21263799999999999    -0.77563800000000005
    32   2      10.412599999999999     0.34210000000000002                -1.71532
    33   7                 10.6097                 1.75288     -1.6318999999999999
    34   2                 11.6441                 2.11816    -0.91562200000000005
    35   7                 12.0153      3.2312699999999999    -0.63386900000000002
    36   7      12.307700000000001     0.97485599999999994    -0.56535199999999997
    37   4                 12.0984    -0.96306499999999995     -1.3401799999999999
    38   4      11.084300000000001               -0.583345                0.154115
    39   4      9.4315599999999993     0.16731699999999999                -1.25509
    40   4      10.505100000000001    0.021227599999999999     -2.7441300000000002
    41   2      8.7390600000000003      6.6069399999999998      13.949199999999999
    42   2      7.6956899999999999      7.5058699999999998                 14.6418
    43   7      6.8511199999999999      6.5292500000000002                 15.3544
    44   2      7.5298600000000002      5.3327499999999999      15.407299999999999
    45   7      7.0921399999999997                 4.44041      16.078099999999999
    46   7      8.7081700000000009      5.3520599999999998                 14.7193
    47   4      9.7675599999999996                 6.95282                  13.878
    48   4      8.4394100000000005      6.4015399999999998                 12.8727
    49   4      7.0283199999999999      7.9772299999999996                 13.8866
    50   4      8.1138100000000009      8.1943999999999999                 15.3797
    51   2      11.526300000000001      1.7162599999999999      8.9032599999999995
    52   2                 11.3081      2.8121900000000002      7.9012000000000002
    53   7      9.9571400000000008      2.5069499999999998      7.5019400000000003
    54   2      9.6602200000000007      1.1910000000000001      7.5855699999999997
    55   7      8.7191600000000005                0.514428      7.1444900000000002
    56   7      10.525499999999999     0.68796000000000002      8.4775700000000001
    57   4      11.286199999999999      2.0036100000000001      9.9603699999999993
    58   4                 12.4613                 1.16764      8.7835000000000001
    59   4                 12.0014                 2.64994      7.0548799999999998
    60   4                 11.3675                  3.8369      8.2177600000000002
    61   2                -11.4133     -7.8102200000000002      9.5979799999999997
    62   2     -11.793699999999999     -7.9794099999999997      8.1669599999999996
    63   7                -10.8439     -8.8849999999999998      7.5834700000000002
    64   2     -9.7443899999999992     -8.9510900000000007      8.4868699999999997
    65   7     -8.7418899999999997     -9.5156100000000006      8.1895600000000002
    66   7                -10.0238     -8.2859599999999993      9.7104800000000004
    67   4     -12.020099999999999     -8.4232899999999997      10.266299999999999
    68   4                -11.4627     -6.8377400000000002                 10.0593
    69   4                -11.7721     -7.0299100000000001      7.6435199999999996
    70   4                -12.7479     -8.3113299999999999      7.9689699999999997
    71   2                 11.5411      25.289300000000001     -7.9716100000000001
    72   2                 12.3437      25.017499999999998     -6.7156099999999999
    73   7                 13.2796      23.938600000000001     -7.1095300000000003
    74   2                 12.8055      23.348800000000001     -8.2666299999999993
    75   7      13.293699999999999      22.316099999999999     -8.7732299999999999
    76   7                  11.782      24.024799999999999                -8.76539
    77   4                 11.9284      26.115100000000002     -8.5576100000000004
    78   4                 10.4457      25.398099999999999     -7.7924199999999999
    79   4                 11.7471                 24.5153     -5.9493299999999998
    80   4                 12.9467      25.838000000000001                -6.30992
    81   2                 6.74275                 14.3828      6.2773399999999997
    82   2      5.2147199999999998                 14.7636                 6.29854
    83   7      4.8586499999999999      14.501899999999999      7.6691000000000003
    84   2      5.7595299999999998      13.644299999999999      8.2109699999999997
    85   7      5.6876699999999998                 13.1869      9.3409800000000001
    86   7      6.8198800000000004                 13.3789      7.3411400000000002
    87   4      7.4551800000000004      15.150600000000001      6.6260000000000003
    88   4      6.9924600000000003                 13.9598                 5.23048
    89   4      4.6901599999999997                 13.9765      5.7353300000000003
    90   4      4.8759399999999999                 15.7912      6.0571900000000003
    91   2    -0.94312300000000004                 11.4404      3.8740899999999998
    92   2                -0.18187                 12.6897      3.9098000000000002
    93   7    0.085695999999999994                 12.8696      2.4338899999999999
    94   2    0.025767200000000001                 11.6761      1.7662100000000001
    95   7                0.327262      11.591100000000001     0.57983300000000004
    96   7    -0.35033399999999998      10.715199999999999      2.6288399999999998
    97   4     -2.0002900000000001                 11.6081                 3.59632
    98   4               -0.732182      10.742100000000001                  4.6959
    99   4     0.75402100000000005                 12.7247      4.5142300000000004
   100   4    -0.80683700000000003                 13.5458      4.2123799999999996
   101   2     0.86275999999999997      7.2316399999999996      7.4239600000000001
   102   2     0.63607199999999997      7.6530699999999996      5.9381700000000004
   103   7    -0.36816300000000002      8.7087199999999996      6.1105700000000001
   104   2    -0.70314299999999996      8.9471799999999995      7.4743899999999996
   105   7                -1.48167      9.7438599999999997      7.9585600000000003
   106   7     0.16058900000000001      8.2374200000000002      8.1912900000000004
   107   4                 1.92313      7.3024399999999998                   7.827
   108   4     0.38687300000000002      6.2941799999999999      7.5400600000000004
   109   4     0.30585000000000001      6.8332899999999999      5.3970900000000004
   110   4      1.4781899999999999      8.1560000000000006      5.4880300000000002
   111   2     -6.7514500000000002                -1.89442     -1.4603200000000001
   112   2     -5.4533800000000001     -2.3220999999999998                -2.15049
   113   7                 -5.7176     -3.7751100000000002                -2.40795
   114   2     -7.0765799999999999                -3.92319                -2.58297
   115   7     -7.4737499999999999     -4.8927399999999999     -3.1477300000000001
   116   7     -7.7630800000000004     -2.8730099999999998     -1.9926900000000001
   117   4     -7.0409199999999998    -0.85881399999999997     -1.7397499999999999
   118   4     -6.6848799999999997     -1.9696800000000001    -0.40485399999999999
   119   4     -4.6525100000000004     -2.4294899999999999                -1.48454
   120   4     -5.2136800000000001     -1.8747499999999999     -3.1236199999999998
   121   2      21.865100000000002      15.944100000000001      3.8661599999999998
   122   2      23.087800000000001                 15.6602      4.8510400000000002
   123   7      23.935700000000001      16.803799999999999      4.6261200000000002
   124   2      23.284800000000001                  17.802      4.0807799999999999
   125   7      23.877199999999998      18.885000000000002                 3.93268
   126   7                 22.0428      17.427299999999999      3.6406399999999999
   127   4                 20.8779                 15.7439      4.2148199999999996
   128   4      21.996700000000001                 15.4968      2.8742200000000002
   129   4      23.724399999999999                 14.7248      4.8450300000000004
   130   4      22.857500000000002                 15.9506      5.8705999999999996
   131   2                 11.2456      18.957100000000001      15.488099999999999
   132   2                 12.2902      19.582699999999999      16.275400000000001
   133   7                 13.5318      18.686599999999999      16.143999999999998
   134   2                 13.3484      17.926200000000001                  15.003
   135   7      14.208299999999999                  17.192      14.635899999999999
   136   7      12.109299999999999      18.087800000000001      14.504899999999999
   137   4                 10.5989                 19.5762                 14.8094
   138   4      10.582599999999999                 18.2393      15.996600000000001
   139   4      12.040100000000001                 19.6418      17.344799999999999
   140   4                 12.6366      20.584499999999998      15.963800000000001
   141   2                 24.1845      25.822099999999999      5.1666999999999996
   142   2      23.838799999999999      25.246400000000001                 6.51736
   143   7      22.431100000000001      25.225200000000001      6.5266500000000001
   144   2                 21.8962                  25.898      5.5230800000000002
   145   7      20.704000000000001      26.037299999999998      5.2879199999999997
   146   7      22.890699999999999      26.493200000000002      4.7794100000000004
   147   4                 24.4742                 25.0716      4.3765999999999998
   148   4      24.918399999999998                 26.6159      5.3011900000000001
   149   4                 24.1052      25.854700000000001      7.4078200000000001
   150   4      24.233599999999999      24.256900000000002      6.7721499999999999
   151   2     -4.0089399999999999      16.614699999999999     -4.7871499999999996
   152   2     -3.3755299999999999      15.951700000000001     -6.0346700000000002
   153   7     -3.3219799999999999      16.954599999999999     -7.0370299999999997
   154   2     -3.5474100000000002      18.165500000000002     -6.4203099999999997
   155   7                  -3.419      19.240100000000002     -6.9468899999999998
   156   7     -3.8538999999999999      17.991499999999998     -5.0639799999999999
   157   4     -3.4867699999999999                 16.3749     -3.7704300000000002
   158   4     -5.1013500000000001      16.350000000000001     -4.6643999999999997
   159   4                -3.70099                 15.0443     -6.3841200000000002
   160   4     -2.2875299999999998                 15.7401     -5.8206800000000003
   161   2    -0.40000200000000002                 12.1898                 13.2888
   162   2                 1.00715                 11.8917      13.025399999999999
   163   7     0.93641300000000005      10.480700000000001      12.507300000000001
   164   2    -0.30003000000000002      10.282400000000001      12.036300000000001
   165   7    -0.58392200000000005      9.1831899999999997      11.573499999999999
   166   7                -1.09246      11.342599999999999                 12.2309
   167   4    -0.67869500000000005                 13.2242                  13.028
   168   4               -0.755942                 12.0121                 14.3447
   169   4      1.7728600000000001      11.976000000000001                 13.8169
   170   4      1.2868299999999999                 12.5397      12.166600000000001
   171   2      20.474699999999999      25.125599999999999      23.019400000000001
   172   2      19.556100000000001                   24.57      21.875599999999999
   173   7      18.365300000000001      24.104700000000001      22.632400000000001
   174   2      18.681000000000001      24.107399999999998      23.982700000000001
   175   7      17.925699999999999      23.627700000000001      24.785799999999998
   176   7                 19.8171      24.858000000000001      24.267099999999999
   177   4                 20.4025      26.239799999999999      22.921099999999999
   178   4      21.505299999999998      24.861599999999999      23.032499999999999
   179   4                  20.006                 23.7576      21.291699999999999
   180   4      19.236599999999999                 25.3492      21.185300000000002
   181   2                 16.6632                 11.0037                  13.612
   182   2      17.891200000000001                 11.6768                 14.0845
   183   7      17.571999999999999      13.083399999999999                 13.6972
   184   2      16.273099999999999                 13.2105      13.306800000000001
   185   7      15.722200000000001                 14.3055                 13.0549
   186   7                 15.6904      11.993600000000001      13.260999999999999
   187   4      16.176200000000001      10.415699999999999      14.479799999999999
   188   4      16.819199999999999      10.405900000000001                 12.8111
   189   4      18.795999999999999      11.410600000000001                 13.5465
   190   4                 18.1004      11.660500000000001                 15.1411
   191   2      16.285900000000002      24.960599999999999                 19.5077
   192   2      15.896800000000001                 25.9207      18.422999999999998
   193   7      14.551399999999999      25.600200000000001      18.145900000000001
   194   2      14.252800000000001      24.328600000000002      18.652999999999999
   195   7                 13.2361                 23.7681      18.383900000000001
   196   7      15.269600000000001      23.950600000000001      19.405799999999999
   197   4                 16.2881      25.335100000000001      20.558800000000002
   198   4      17.238800000000001      24.448699999999999      19.261700000000001
   199   4                 16.4999      25.696400000000001      17.564800000000002
   200   4                 15.9915      27.056899999999999                 18.6617
   201   2                 14.5787      14.958600000000001                 21.1541
   202   2      16.039400000000001      15.148899999999999                 21.2926
   203   7      16.572500000000002      14.413399999999999      20.143599999999999
   204   2                 15.6838                 13.4223      19.816099999999999
   205   7                 16.0824                 12.5122                 19.1556
   206   7                 14.5671      13.589700000000001      20.532499999999999
   207   4                    14.1                  15.589      20.406700000000001
   208   4      13.865399999999999                 14.9438                  22.012
   209   4                 16.3794                 14.8689      22.284099999999999
   210   4                 16.1675      16.215199999999999      21.194900000000001
   211   2      20.258099999999999      14.696300000000001      19.572099999999999
   212   2      19.788699999999999      13.713800000000001                 20.6585
   213   7                 19.1234                 12.7097      19.924700000000001
   214   2      19.253900000000002      12.897500000000001                   18.57
   215   7                 18.8415      12.224399999999999      17.691099999999999
   216   7      19.939399999999999                  14.061      18.305599999999998
   217   4                 21.4192                 14.6911      19.705100000000002
   218   4      19.799900000000001      15.673999999999999      19.642099999999999
   219   4      19.073699999999999                 14.0101      21.473700000000001
   220   4      20.681799999999999                 13.2498                  21.113
   221   2     -4.6385100000000001      18.444600000000001      5.2383499999999996
   222   2     -3.3916900000000001                  18.526                 4.40062
   223   7                -2.88896      19.842400000000001      4.8314399999999997
   224   2     -3.9596100000000001      20.586500000000001      5.3378100000000002
   225   7     -3.8616799999999998      21.767499999999998                 5.63314
   226   7     -5.1546700000000003      19.822600000000001      5.4009099999999997
   227   4     -4.3223399999999996                  18.148                 6.20526
   228   4     -5.2927999999999997      17.725999999999999      4.6695700000000002
   229   4                -3.65524      18.556000000000001                 3.31271
   230   4                -2.67841                 17.7697      4.6776600000000004
   231   2                   11.02      17.915500000000002      21.115400000000001
   232   2      9.7650299999999994      17.601600000000001      21.933399999999999
   233   7      9.7157499999999999      16.150700000000001      22.053699999999999
   234   2      10.682399999999999                 15.6409      21.218299999999999
   235   7      10.808999999999999      14.430199999999999      21.105399999999999
   236   7      11.420500000000001                 16.6038      20.588999999999999
   237   4                  11.853      18.270299999999999                 21.7864
   238   4                 10.8796      18.648399999999999                 20.2531
   239   4      8.7596500000000006      17.863700000000001      21.433900000000001
   240   4      9.7795299999999994      18.075900000000001                 22.9665
   241   2      5.6247199999999999      21.351700000000001      20.657499999999999
   242   2      6.4064500000000004      22.264600000000002      19.703099999999999
   243   7      5.4073799999999999      23.194299999999998      19.154800000000002
   244   2      4.2109800000000002                 23.0396      19.801400000000001
   245   7      3.2181199999999999      23.619700000000002      19.531500000000001
   246   7      4.3512199999999996      22.130400000000002                 20.8035
   247   4      6.1006099999999996      21.341000000000001      21.626200000000001
   248   4      5.3700400000000004      20.378699999999998                  20.192
   249   4      6.8799799999999998                 21.7241                 18.8523
   250   4      7.1507899999999998                 22.8643                  20.186
   251   2      19.348099999999999      19.327400000000001     0.87360599999999999
   252   2      19.269500000000001      17.757000000000001     0.91657999999999995
   253   7                 19.6858                 17.4009               -0.438859
   254   2      20.220800000000001      18.521799999999999     -1.0867100000000001
   255   7      20.723800000000001      18.498200000000001                 -2.1671
   256   7                 20.0624                 19.6861               -0.354605
   257   4      20.053100000000001      19.717199999999998                 1.60456
   258   4                 18.2803                 19.6873      1.0437799999999999
   259   4      18.294899999999998      17.359400000000001                 1.14419
   260   4                 19.9894      17.247699999999998      1.5686599999999999
   261   2      2.8453499999999998      12.621499999999999     -4.2915799999999997
   262   2      2.0876299999999999      13.350199999999999     -3.2037300000000002
   263   7      2.1971599999999998                 12.4672     -2.1031900000000001
   264   2      3.1796000000000002                  11.552                -2.32714
   265   7                  3.4213                 10.7112     -1.5283199999999999
   266   7      3.7869000000000002      11.769500000000001     -3.5313500000000002
   267   4      3.5423499999999999                 13.1891     -4.8899999999999997
   268   4      2.2058599999999999                 11.9269     -4.8723700000000001
   269   4                 1.03908                 13.5009     -3.4635199999999999
   270   4      2.5167999999999999                 14.3794     -2.9739499999999999
   271   2                 6.27773                 10.1432      9.8420900000000007
   272   2      7.5384399999999996      9.2606699999999993                 10.0563
   273   7      7.3812300000000004      8.6521699999999999      11.362399999999999
   274   2      6.0679699999999999      8.8763199999999998                 11.7676
   275   7      5.6098999999999997      8.4612200000000009      12.792199999999999
   276   7      5.3669700000000002      9.4987899999999996      10.841100000000001
   277   4      5.9242100000000004      9.9603300000000008      8.8223299999999991
   278   4      6.5054400000000001                 11.1135                 10.2234
   279   4      8.4681499999999996      9.8508099999999992                 10.1812
   280   4      7.6686100000000001      8.4253300000000007      9.4359599999999997
   281   2      8.3465399999999992                 3.22627      12.209099999999999
   282   2      6.8456099999999998                 3.34422      12.419600000000001
   283   7      6.3306800000000001      2.7496499999999999      11.207599999999999
   284   2      7.2907999999999999      2.3854099999999998      10.364100000000001
   285   7      7.1741900000000003                 1.80948      9.2939100000000003
   286   7      8.5015599999999996      2.8435000000000001      10.829000000000001
   287   4      8.8277699999999992                  2.5322                 12.8978
   288   4      8.8000399999999992      4.2282099999999998      12.113799999999999
   289   4      6.4249200000000002      4.3621299999999996                 12.5494
   290   4      6.5834900000000003      2.6237900000000001      13.186500000000001
   291   2      15.673299999999999      2.4377599999999999                 10.8376
   292   2                  15.185      3.0255899999999998      9.5339200000000002
   293   7      14.874700000000001      4.4031399999999996      9.8011700000000008
   294   2                  14.714      4.5838900000000002                   11.15
   295   7                 14.2644      5.6823800000000002      11.567299999999999
   296   7                 15.0456      3.4242300000000001                 11.8093
   297   4      16.762499999999999      2.5532300000000001                 10.9825
   298   4      15.203099999999999                 1.45051      11.158099999999999
   299   4      14.272600000000001      2.5593499999999998      9.0937999999999999
   300   4      15.926299999999999      3.1048499999999999      8.7218900000000001
   301   2                 18.3629      8.7181700000000006      3.6868300000000001
   302   2      17.322199999999999      9.2886500000000005      4.6944100000000004
   303   7      17.136099999999999      8.1704699999999999      5.6528499999999999
   304   2      18.370799999999999      7.5951399999999998      5.6980899999999997
   305   7      18.848500000000001      7.0079900000000004      6.6407100000000003
   306   7                 19.0319      7.7534999999999998      4.5125700000000002
   307   4      19.102799999999998      9.3926599999999993                 3.40313
   308   4                 17.8855      8.3311700000000002      2.7755800000000002
   309   4      16.363499999999998      9.4533299999999993      4.1802200000000003
   310   4      17.644600000000001                 10.1417      5.2909800000000002
   311   2               -0.464028      17.910599999999999                 13.3637
   312   2      1.0691299999999999      18.213699999999999      13.370699999999999
   313   7      1.6324000000000001      17.108000000000001      14.051299999999999
   314   2     0.66288800000000003      16.225999999999999                 14.4215
   315   7     0.85236199999999995      15.258599999999999      15.125999999999999
   316   7               -0.518455      16.569800000000001      13.848100000000001
   317   4    -0.97847799999999996                 17.9712                 12.4062
   318   4    -0.99566500000000002      18.557400000000001                 14.0021
   319   4      1.3554600000000001      19.202999999999999      13.763299999999999
   320   4      1.4792799999999999                 18.1416                 12.3576
   321   2      13.024900000000001     -8.6714800000000007                 16.7941
   322   2                 14.1973     -7.8256899999999998      16.219200000000001
   323   7      15.219900000000001     -8.8539999999999992      16.026399999999999
   324   2                 14.9079     -9.9763300000000008      16.678100000000001
   325   7                  15.586                -10.9628      16.873799999999999
   326   7                 13.6289                -9.91737                   17.18
   327   4                  12.211     -8.8711199999999995      16.113800000000001
   328   4      12.635999999999999     -8.1985799999999998                  17.698
   329   4      14.555099999999999     -7.0801699999999999      16.920100000000001
   330   4      13.957700000000001     -7.3288900000000003                 15.2979
   331   2      15.359500000000001                 21.0671      15.462999999999999
   332   2                 16.3032      21.549600000000002      14.264799999999999
   333   7      17.039400000000001                 22.7011                 14.8527
   334   2      16.900300000000001                 22.6769                 16.2317
   335   7      17.611599999999999      23.279699999999998      17.012599999999999
   336   7      15.900600000000001                 21.7958                 16.6098
   337   4      15.474399999999999                 19.9953      15.690099999999999
   338   4                 14.3249                 21.3537                 15.2296
   339   4                  15.715      21.824999999999999                 13.3651
   340   4      17.017700000000001      20.822299999999998                 14.0373
   341   2                 20.0077    -0.39295600000000003      18.764800000000001
   342   2      20.046099999999999    -0.55404299999999995                 17.1797
   343   7      20.441800000000001     0.71140000000000003      16.765899999999998
   344   2      20.635400000000001                 1.60795      17.728999999999999
   345   7      20.866800000000001      2.7598199999999999      17.506799999999998
   346   7      20.517900000000001     0.96219600000000005      18.972899999999999
   347   4      20.682600000000001                -1.06247      19.306999999999999
   348   4      18.974299999999999    -0.51787000000000005                 19.1097
   349   4      19.031199999999998    -0.74155199999999999      16.827000000000002
   350   4                 20.7441     -1.1851700000000001      16.784800000000001
   351   2                 6.41106                 10.5969      5.2293900000000004
   352   2      6.1607099999999999      9.3316800000000004      4.5172299999999996
   353   7      7.3323799999999997      8.4554500000000008                 4.76485
   354   2      7.9259300000000001      8.9555600000000002      5.9587199999999996
   355   7      8.8109400000000004      8.4216999999999995      6.4797599999999997
   356   7      7.3216900000000003      10.152699999999999      6.3966799999999999
   357   4      5.5052500000000002      11.184900000000001      5.5236400000000003
   358   4      7.0100300000000004                 11.2437      4.5652799999999996
   359   4      6.0469299999999997      9.5019100000000005      3.4320400000000002