(written by ASE)

888 atoms
9 atom types

0.0      21.553999999999998  xlo xhi
0.0      21.553999999999998  ylo yhi
0.0                  21.544  zlo zhi

Atoms # atomic

     1   2     -32.445599999999999                -13.0204                 18.4892
     2   4     -32.584699999999998     -13.997400000000001      18.040800000000001
     3   4     -32.887700000000002                -12.2966      17.736899999999999
     4   7     -30.993600000000001     -12.904500000000001      18.681799999999999
     5   2     -30.743600000000001                -12.6561      20.013000000000002
     6   7     -29.620999999999999                -12.6181      20.525700000000001
     7   7     -31.924299999999999     -12.552199999999999      20.674199999999999
     8   2     -33.054099999999998                -12.9841      19.897500000000001
     9   4     -33.923699999999997     -12.271599999999999      20.094200000000001
    10   4     -33.275199999999998                -14.0352      20.229299999999999
    11   2     -26.542999999999999     -6.3352000000000004      5.7793999999999999
    12   4                -25.9316     -5.8171099999999996      6.5189599999999999
    13   4     -27.261299999999999                 15.9015      5.3608200000000004
    14   7     -27.367699999999999     -7.2605000000000004      6.5077100000000003
    15   2     -27.722300000000001     -8.3126300000000004      5.6954500000000001
    16   7     -28.614799999999999     -9.1265000000000001      5.9581099999999996
    17   7                -26.8416     -8.3686500000000006                 4.69163
    18   2     -25.860900000000001     -7.2516600000000002      4.7264200000000001
    19   4     -25.752600000000001                -6.80579      3.7418399999999998
    20   4     -24.877700000000001     -7.6788999999999996      5.0807900000000004
    21   2     -27.018599999999999     -2.1491199999999999      2.5161600000000002
    22   4     -26.040700000000001     -1.9535199999999999                  2.9398
    23   4     -26.985099999999999     -2.1020599999999998      1.3904099999999999
    24   7     -27.879000000000001     -1.0782799999999999      2.9784299999999999
    25   2                -28.7364                -1.58857      3.9287700000000001
    26   7                -29.5566               -0.925485      4.5524199999999997
    27   7     -28.611899999999999     -2.9197500000000001      4.0784399999999996
    28   2     -27.708400000000001     -3.4414699999999998      3.0302600000000002
    29   4                -28.3887     -3.9795199999999999      2.3279299999999998
    30   4     -26.947700000000001     -4.0484499999999999      3.6141200000000002
    31   2     -15.110300000000001      2.8791500000000001                -1.17143
    32   4     -15.621499999999999      2.5697399999999999               -0.248918
    33   4     -15.014699999999999                 3.91859                -1.15402
    34   7                -15.9739                 2.58473                -2.29217
    35   2     -15.372400000000001      1.9088799999999999     -3.2898499999999999
    36   7     -15.825200000000001                  1.7174                -4.39377
    37   7                -14.1083      1.5255000000000001     -2.9080900000000001
    38   2                -13.8483      2.0101599999999999     -1.5246900000000001
    39   4     -12.907299999999999      2.5735000000000001     -1.5102800000000001
    40   4                 -13.698      1.1128899999999999    -0.88079700000000005
    41   2     -22.819800000000001     -5.4996799999999997      17.199100000000001
    42   4                -22.5382     -4.4733799999999997                 17.5731
    43   4     -22.854299999999999     -5.4747899999999996      16.110399999999998
    44   7     -24.176100000000002     -5.6783700000000001      17.658100000000001
    45   2     -24.259499999999999     -6.6690399999999999      18.619900000000001
    46   7     -25.240400000000001     -6.9111599999999997      19.321000000000002
    47   7                -23.0747     -7.2737100000000003      18.815200000000001
    48   2     -21.990200000000002                 -6.6433      17.950800000000001
    49   4     -21.537299999999998     -7.2857399999999997      17.234500000000001
    50   4                -21.2684     -6.2649699999999999                 18.6752
    51   2     -16.664200000000001      12.162699999999999      13.769500000000001
    52   4                -16.4513                 12.7151                 12.7981
    53   4     -16.701699999999999      12.739599999999999      14.631600000000001
    54   7     -15.598599999999999     -10.402200000000001                 13.8531
    55   2     -16.002700000000001                 -11.542      13.072699999999999
    56   7                -15.2858                -12.4551      12.716200000000001
    57   7     -17.333100000000002      10.157999999999999      12.783099999999999
    58   2     -17.920500000000001                  11.339                 13.4917
    59   4                -18.2592      10.956799999999999                 14.4709
    60   4     -18.673300000000001                 11.6752      12.830500000000001
    61   2     -18.255299999999998     -2.1856399999999998      19.068200000000001
    62   4     -18.068000000000001     -3.0314899999999998      19.735800000000001
    63   4     -17.737100000000002     -1.2473700000000001      19.359999999999999
    64   7                -19.6708     -1.7974699999999999                 19.2224
    65   2     -20.369399999999999     -2.4012799999999999                 18.2437
    66   7                -21.5976     -2.4155099999999998                  18.166
    67   7     -19.533000000000001     -2.9435799999999999      17.292899999999999
    68   2                -18.1144     -2.5698799999999999      17.557300000000001
    69   4     -17.902899999999999                -1.61727                 16.9377
    70   4                -17.4693                -3.41465      17.414999999999999
    71   2                -28.7775      5.1049600000000002     -1.3389200000000001
    72   4     -28.735900000000001      4.1292200000000001    -0.93337000000000003
    73   4     -28.784500000000001      5.8889500000000004    -0.55470799999999998
    74   7     -30.001799999999999      5.3661099999999999     -2.2212800000000001
    75   2     -29.651399999999999                -15.9003     -3.4911699999999999
    76   7                -30.5061     -15.729799999999999     -4.3688399999999996
    77   7     -28.336200000000002      5.7375499999999997                -3.59137
    78   2     -27.678699999999999      5.3901700000000003                -2.37649
    79   4     -26.966899999999999      6.1038899999999998                -1.94868
    80   4     -27.091699999999999      4.4504599999999996     -2.5777600000000001
    81   2     -29.183900000000001     -12.377700000000001      7.9928299999999997
    82   4     -28.385999999999999     -12.773899999999999      7.3121200000000002
    83   4     -30.164999999999999                -12.2936      7.4817799999999997
    84   7     -28.940000000000001                -10.9711      8.3746399999999994
    85   2     -28.786200000000001                -10.8767      9.7441399999999998
    86   7     -28.716200000000001     -9.8534299999999995      10.385899999999999
    87   7                -28.9587                -12.1175      10.295999999999999
    88   2     -29.238700000000001     -13.134600000000001      9.3183600000000002
    89   4     -30.248200000000001                -13.5136                 9.51464
    90   4     -28.559200000000001                -13.9312      9.4564400000000006
    91   2                -18.3489     -8.5815999999999999      22.299800000000001
    92   4                -18.3018     -9.1864799999999995      21.361599999999999
    93   4     -18.752099999999999     -9.2081900000000001                 23.0794
    94   7     -19.349299999999999     -7.4611900000000002      22.066700000000001
    95   2     -18.716899999999999     -6.2841300000000002      22.251300000000001
    96   7                -19.3338     -5.2351599999999996      22.230499999999999
    97   7                -17.3659     -6.4203599999999996                 22.3688
    98   2                -17.0564     -7.8511600000000001      22.665099999999999
    99   4     -16.854500000000002     -7.9353100000000003      23.730399999999999
   100   4     -16.197399999999998     -8.1030700000000007      22.016400000000001
   101   2     -20.204000000000001     -4.0196100000000001      9.5816300000000005
   102   4     -19.999199999999998     -3.9690699999999999                 10.6652
   103   4     -20.319900000000001     -5.1236199999999998      9.4188799999999997
   104   7     -19.031600000000001     -3.5226299999999999      8.9242000000000008
   105   2                -19.3001                -2.45939      8.1197400000000002
   106   7     -18.514399999999998                -1.88625      7.3963200000000002
   107   7     -20.585000000000001     -2.0720000000000001      8.2951200000000007
   108   2     -21.268999999999998                -3.16378      9.0732800000000005
   109   4     -22.084800000000001     -3.5283899999999999      8.4265100000000004
   110   4     -21.732900000000001     -2.5984400000000001      9.9248499999999993
   111   2     -24.504999999999999      8.1796699999999998     -5.0756699999999997
   112   4     -23.950700000000001      8.5844100000000001      15.639099999999999
   113   4     -25.197700000000001      8.8393999999999995     -4.5758700000000001
   114   7     -23.529399999999999      7.6695700000000002     -4.0855699999999997
   115   2     -23.584099999999999      6.2879699999999996     -4.0579400000000003
   116   7     -22.889299999999999      5.6028200000000004     -3.3200400000000001
   117   7                -24.5273      5.7866999999999997                -4.89628
   118   2     -25.367699999999999      6.8836300000000001     -5.4431399999999996
   119   4     -26.370899999999999      6.8241899999999998     -4.9776600000000002
   120   4     -25.503799999999998      6.6501599999999996                 15.0268
   121   2                -37.5197                -12.4117                 23.0502
   122   4     -38.130600000000001                -12.9162      23.871200000000002
   123   4     -36.860599999999998     -11.648899999999999      23.508800000000001
   124   7     -38.304000000000002                -11.8955      22.022500000000001
   125   2     -37.611600000000003     -11.911899999999999      20.871099999999998
   126   7     -37.975999999999999     -11.344200000000001                 19.8812
   127   7     -36.456800000000001     -12.714700000000001                 21.0227
   128   2     -36.652799999999999                -13.4757      22.275099999999998
   129   4                -35.6404     -13.547800000000001                  22.776
   130   4     -37.104300000000002     -14.470700000000001                 22.1296
   131   2                -16.2944     -7.9355500000000001                 19.3674
   132   4                -15.9809     -8.5891000000000002      20.256399999999999
   133   4                -16.1129     -6.9320899999999996      19.577500000000001
   134   7                -17.6797     -8.2891499999999994      19.069400000000002
   135   2     -17.613099999999999     -9.0246099999999991                 17.8887
   136   7     -18.599799999999998     -9.4904399999999995      17.411100000000001
   137   7                -16.3977     -9.0903200000000002                 17.3352
   138   2     -15.486599999999999                -8.30504      18.143899999999999
   139   4     -15.154500000000001     -7.4597699999999998      17.588200000000001
   140   4     -14.595000000000001     -8.8002300000000009      18.407299999999999
   141   2     -9.9194399999999998     -4.0124000000000004      5.4975699999999996
   142   4     -9.5450400000000002     -3.3523399999999999      4.7647399999999998
   143   4     -32.485700000000001     -3.5646900000000001      5.7697700000000003
   144   7     -30.535699999999999     -3.8645200000000002      6.6011300000000004
   145   2     -30.003900000000002     -5.0268800000000002                 6.95641
   146   7     -29.296299999999999     -5.1767899999999996      7.9050500000000001
   147   7     -8.7554700000000008     -6.0342200000000004      6.0354299999999999
   148   2     -9.8798600000000008     -5.5018599999999998      5.1156199999999998
   149   4                -10.8385     -6.0167799999999998      5.4180700000000002
   150   4     -9.4762699999999995     -5.7420499999999999      4.1514600000000002
   151   2     -26.108799999999999     -11.936199999999999                 12.2691
   152   4                -26.3932                -11.2235                 13.0747
   153   4     -26.572900000000001     -11.721500000000001      11.333399999999999
   154   7     -26.596699999999998                -13.2502                 12.7776
   155   2     -25.642299999999999                -14.1389      12.593500000000001
   156   7     -25.746200000000002                 -15.333                 12.8719
   157   7     -24.547999999999998     -13.658899999999999                 12.0472
   158   2     -24.584900000000001     -12.180899999999999      12.239000000000001
   159   4     -24.023900000000001      9.8752399999999998                 11.4969
   160   4     -24.130600000000001      9.5581300000000002                 13.2455
   161   2                -36.0715     -4.1353600000000004      20.215900000000001
   162   4     -36.710000000000001     -4.4913999999999996                 19.3626
   163   4     -35.872999999999998     -4.8410500000000001                 20.9879
   164   7     -36.601700000000001     -2.9323800000000002      20.730699999999999
   165   2                -36.1614     -1.8555600000000001                 20.0379
   166   7     -15.114699999999999    -0.78206299999999995      20.097899999999999
   167   7     -35.094999999999999                -2.26505      19.234400000000001
   168   2     -34.684100000000001     -3.5746500000000001                 19.7149
   169   4     -33.987099999999998     -3.4800399999999998      20.558499999999999
   170   4     -34.228999999999999     -4.0578500000000002      18.836200000000002
   171   2                  -13.07     -5.9240399999999998      13.434699999999999
   172   4                -12.8323     -6.9633099999999999      13.134499999999999
   173   4                -13.1328     -5.2405900000000001                 12.5969
   174   7                -12.0379     -5.2707600000000001                 14.2904
   175   2                 -12.628     -4.8820199999999998                 15.4933
   176   7                -11.9834                -4.25387      16.305399999999999
   177   7                -13.9116     -5.1460100000000004                 15.5383
   178   2                -14.2834     -5.9630000000000001                 14.4177
   179   4                -15.1349     -5.4274899999999997                 13.9503
   180   4     -14.495699999999999     -6.9712699999999996      14.777699999999999
   181   2                -22.2958                -11.5078                 5.07944
   182   4                -22.7668                 10.8809      5.6734900000000001
   183   4     -22.123999999999999                -12.3521      5.7349899999999998
   184   7     -21.088699999999999                 10.5274      4.4634499999999999
   185   2     -20.968800000000002                -11.4938      3.1365599999999998
   186   7     -20.049099999999999     -11.314399999999999      2.4047800000000001
   187   7                -22.1814     -12.091900000000001      2.7089300000000001
   188   2                 -23.151                -11.8786      3.8351500000000001
   189   4     -23.536100000000001                -12.8858      3.8820899999999998
   190   4     -23.998000000000001                -11.2582      25.020199999999999
   191   2     -24.385200000000001    -0.86408499999999999                 18.9557
   192   4     -23.343800000000002     -1.0121500000000001                 19.1815
   193   4     -24.615500000000001     0.25152999999999998      18.892700000000001
   194   7     -25.336400000000001     -1.3476999999999999                 19.9528
   195   2     -26.296900000000001     -2.0716800000000002      19.371300000000002
   196   7     -27.110600000000002                -2.76031      20.042400000000001
   197   7     -26.134799999999998                 -2.1128      18.042400000000001
   198   2     -24.795300000000001     -1.6485700000000001                 17.7517
   199   4     -24.898399999999999     -1.0815300000000001      16.790800000000001
   200   4     -24.206199999999999     -2.5941000000000001                 17.6174
   201   2     -22.694600000000001     -2.7973499999999998      22.454499999999999
   202   4     -22.053100000000001     -3.2425799999999998      23.278400000000001
   203   4     -22.481100000000001                -1.67615      22.408899999999999
   204   7     -24.086200000000002     -2.8782000000000001                 22.7545
   205   2                -24.6127     -3.9452699999999998                 22.1584
   206   7     -25.770900000000001     -4.2706200000000001      22.417200000000001
   207   7     -23.731100000000001     -4.5231599999999998    -0.23641100000000001
   208   2                -22.6188     -3.5364599999999999    -0.38748700000000003
   209   4     -22.915900000000001     -3.0050699999999999     -1.3126100000000001
   210   4     -21.623000000000001     -4.0065999999999997    -0.44442799999999999
   211   2                -10.9285     -8.4341799999999996      19.633900000000001
   212   4                -11.2486     -9.3345599999999997      19.055099999999999
   213   4     -9.9633599999999998     -8.4610800000000008      20.111799999999999
   214   7                -11.9481     -8.2752400000000002      20.703399999999998
   215   2                -12.8093     -7.1999000000000004      20.200800000000001
   216   7     -13.853199999999999     -6.9286199999999996      20.736899999999999
   217   7     -12.457700000000001                -6.85121     -2.6392000000000002
   218   2                -11.0482     -7.2144500000000003     -2.8317100000000002
   219   4     -32.023899999999998                -6.37636                -2.51695
   220   4                -10.8171     -7.5309699999999999     -3.8339300000000001
   221   2                -23.1358      13.358700000000001                 14.5665
   222   4                -23.1083                 14.4671      14.417899999999999
   223   4     -23.929300000000001                 13.1477      15.351100000000001
   224   7     -21.822099999999999                 12.9131                 15.0403
   225   2     -21.771000000000001                 11.6129      14.739800000000001
   226   7     -21.101500000000001      10.824999999999999                 15.3965
   227   7                -22.5276      11.308999999999999      13.713699999999999
   228   2     -23.342700000000001      12.469200000000001                 13.3902
   229   4     -24.409700000000001      12.148400000000001      13.331899999999999
   230   4     -23.017600000000002                 12.8194                 12.3934
   231   2     -36.598599999999998      8.7449600000000007      17.123100000000001
   232   4     -36.526400000000002      9.8014100000000006      17.035699999999999
   233   4                -36.5426      8.5915599999999994      18.180900000000001
   234   7     -35.443600000000004      8.1142599999999998      16.456399999999999
   235   2     -35.897199999999998      7.4739000000000004                 15.3469
   236   7                -13.5627      7.0227899999999996                  14.481
   237   7     -37.261699999999998      7.2792300000000001      15.353199999999999
   238   2     -37.796700000000001      8.0769599999999997      16.482900000000001
   239   4     -38.275300000000001      7.3709699999999998                 17.1511
   240   4     -38.526800000000001      8.7996700000000008      16.092700000000001
   241   2     -34.421599999999998     -9.9089799999999997      7.9164300000000001
   242   4     -35.121400000000001     -9.2709899999999994      7.3761200000000002
   243   4     -34.909500000000001                -10.5786      8.6685700000000008
   244   7     -33.544499999999999                -9.10548      8.6551799999999997
   245   2     -32.269399999999997                -9.29514      8.1369399999999992
   246   7     -31.253499999999999     -8.7654899999999998      8.5451800000000002
   247   7     -32.318600000000004                -10.0923      7.0077299999999996
   248   2     -33.572699999999998                -10.7273      6.9319600000000001
   249   4     -33.451799999999999     -11.775399999999999      7.2376800000000001
   250   4     -33.958100000000002                -10.7568      5.9189400000000001
   251   2     -24.549299999999999                -5.07944      9.7967499999999994
   252   4     -24.425699999999999     -4.0296099999999999      10.262600000000001
   253   4     -24.256900000000002     -5.0990700000000002                 8.76844
   254   7     -25.972999999999999                -5.43804      9.7265300000000003
   255   2                -26.0717     -6.8302699999999996      9.8540600000000005
   256   7     -27.023299999999999     -7.4221300000000001      9.4566700000000008
   257   7     -24.884699999999999     -7.2920600000000002      10.281599999999999
   258   2     -24.017299999999999     -6.2043999999999997      10.664300000000001
   259   4     -23.066600000000001     -6.5061299999999997                 10.4193
   260   4     -24.075299999999999     -6.1330299999999998      11.776400000000001
   261   2     -25.201000000000001      10.555199999999999                 20.1038
   262   4     -25.848299999999998      9.6487099999999995                 20.1309
   263   4     -25.627600000000001                 11.3536      20.684000000000001
   264   7                 -25.302      11.095800000000001      18.682600000000001
   265   2     -24.058599999999998      11.350300000000001      18.290900000000001
   266   7     -23.850899999999999      11.728999999999999                 17.1724
   267   7     -23.086300000000001                 10.9384                 19.2042
   268   2     -23.741499999999998      10.092000000000001                 20.1861
   269   4     -23.214300000000001                 10.1668      21.148399999999999
   270   4     -23.616399999999999      9.0531100000000002      19.960999999999999
   271   2                -29.8903     -6.8401199999999998      12.658300000000001
   272   4     -28.952000000000002     -6.5081300000000004                 12.1683
   273   4                -30.7197     -6.8140200000000002      11.960699999999999
   274   7     -30.183199999999999     -5.8869699999999998                 13.6982
   275   2     -29.977499999999999     -6.4598300000000002      14.943899999999999
   276   7                -30.1921     -5.9635699999999998      16.037600000000001
   277   7                -29.5335     -7.7283999999999997      14.817500000000001
   278   2     -29.811199999999999     -8.1703799999999998      13.457100000000001
   279   4                -30.8108     -8.6143400000000003                 13.4742
   280   4                -29.0991     -9.0073899999999991      13.117800000000001
   281   2     -32.713999999999999      10.806900000000001      11.386799999999999
   282   4                -32.8476      11.836499999999999                 11.1511
   283   4     -31.891300000000001                 10.4467                 11.9732
   284   7                -32.4709                -11.3588                  10.057
   285   2     -33.179699999999997                -12.4529      9.8749500000000001
   286   7     -32.991300000000003                -13.2982      9.0039899999999999
   287   7     -34.093499999999999     -12.654299999999999      10.856299999999999
   288   2     -34.056899999999999      10.066800000000001      11.821400000000001
   289   4     -34.192399999999999      9.7662700000000005                 12.9369
   290   4     -34.974299999999999      10.608499999999999                 11.5418
   291   2                -26.0566      6.1807299999999996      5.0314899999999998
   292   4     -26.109300000000001      6.4310299999999998      6.0985100000000001
   293   4     -26.009899999999998      7.1471299999999998                 4.50936
   294   7     -27.341200000000001      5.5046499999999998      4.7078600000000002
   295   2     -27.186399999999999      4.2725200000000001      4.0728999999999997
   296   7     -28.101099999999999      3.5512199999999998      3.7695699999999999
   297   7                -25.8247      4.0720000000000001      3.9179499999999998
   298   2     -25.014500000000002      5.1318599999999996      4.5433899999999996
   299   4     -24.317499999999999      5.5487500000000001      3.7507899999999998
   300   4                -24.4177      4.6527000000000003      5.3371000000000004
   301   2     -25.944800000000001                 10.9849      7.1195000000000004
   302   4     -26.964099999999998                 11.3222      7.1489799999999999
   303   4     -25.328800000000001                 11.5276      6.3794399999999998
   304   7     -25.993200000000002      9.5601400000000005      6.7447499999999998
   305   2     -25.726600000000001      8.8250200000000003      7.8754200000000001
   306   7     -25.727599999999999      7.6127799999999999      7.9394299999999998
   307   7     -25.537500000000001      9.6602200000000007      8.9489199999999993
   308   2     -25.265699999999999      10.991099999999999      8.5043699999999998
   309   4                -24.2119      11.181699999999999      8.4134499999999992
   310   4                -25.7303                 11.7171      9.1219699999999992
   311   2     -20.733899999999998     -10.863099999999999      8.5237099999999995
   312   4     -20.212199999999999                -10.4131      7.6501900000000003
   313   4     -21.299099999999999     -11.782999999999999      8.3585399999999996
   314   7     -21.586099999999998     -9.7304300000000001      8.9301700000000004
   315   2     -21.249600000000001     -9.4495500000000003      10.196999999999999
   316   7     -21.662199999999999     -8.5291399999999999                 10.8888
   317   7     -20.378699999999998     -10.390599999999999                 10.7438
   318   2     -19.783200000000001                -11.1585      9.6813400000000005
   319   4     -19.893699999999999                -12.1724      9.8864999999999998
   320   4     -18.746099999999998                -10.9138      9.4288500000000006
   321   2     -19.046299999999999      3.6216699999999999     -4.8339800000000004
   322   4     -19.389399999999998      4.4227299999999996     -5.5252100000000004
   323   4     -18.119700000000002      4.0505699999999996     -4.4317700000000002
   324   7     -40.356900000000003      2.4215499999999999     -5.5425899999999997
   325   2     -40.840299999999999      1.4091800000000001     -4.7700500000000003
   326   7     -40.659799999999997     0.25577800000000001     -5.1206199999999997
   327   7     -41.512599999999999                 1.84107                -3.68432
   328   2     -41.643000000000001      3.2562500000000001     -3.7853599999999998
   329   4     -41.441600000000001      3.7006600000000001                -2.81447
   330   4     -42.640799999999999      3.4296600000000002     -4.2138999999999998
   331   2     -24.051500000000001      3.4340700000000002                 14.2964
   332   4     -25.037299999999998      2.9867499999999998                 14.2072
   333   4     -24.171900000000001      4.4684200000000001      14.088699999999999
   334   7     -23.252500000000001      2.7149299999999998                 13.2674
   335   2     -22.037600000000001      2.6629999999999998      13.725099999999999
   336   7                 -21.038                 2.44659                  13.007
   337   7     -22.002500000000001      2.7941500000000001                 15.1287
   338   2     -23.398700000000002      2.9735399999999998      15.559200000000001
   339   4     -23.438500000000001      3.6946599999999998                  16.384
   340   4     -23.758800000000001      1.9297200000000001      15.644399999999999
   341   2     -29.933299999999999                 2.13551                 11.2278
   342   4     -30.049700000000001                 2.90937                 10.4275
   343   4                -29.2456                 1.37429      10.977600000000001
   344   7                -31.2195      1.4947999999999999                 11.3773
   345   2     -31.832999999999998      1.9282900000000001                 12.4922
   346   7     -32.924599999999998      1.6277299999999999                 12.8971
   347   7     -30.980499999999999                 2.76065                 13.2392
   348   2     -29.657800000000002      2.7971900000000001                 12.6135
   349   4                -29.0916                  2.0869      13.113099999999999
   350   4     -29.172999999999998                  3.7698                 12.6357
   351   2                -22.6081     -7.2369199999999996     0.74280800000000002
   352   4     -21.959599999999998     -6.6767500000000002                 1.37917
   353   4                  -22.48     -6.9502800000000002    -0.31630200000000003
   354   7                -24.0548     -6.9823500000000003     0.97315300000000005
   355   2     -24.708600000000001     -8.2001399999999993                 1.12961
   356   7     -25.880199999999999     -8.2992899999999992                 1.34538
   357   7     -23.864000000000001     -9.2134499999999999     0.98629999999999995
   358   2     -22.446100000000001     -8.7592700000000008     0.74709300000000001
   359   4                -22.1479     -9.2809399999999993    -0.15287799999999999