(written by ASE)

915 atoms
9 atom types

0.0      21.712770568302616  xlo xhi
0.0      21.712770568302616  ylo yhi
0.0      21.712770568302616  zlo zhi

Atoms # atomic

     1   2      14.339399999999999                 5.94224      4.0527699999999998
     2   2                  14.012      4.5356199999999998      4.5296099999999999
     3   7                 15.3027      3.8233299999999999      4.6912599999999998
     4   2                 16.2944                 4.60243      4.3136900000000002
     5   7      17.444299999999998      4.2503500000000001      4.1290199999999997
     6   7      15.816599999999999      5.9102800000000002      4.0763299999999996
     7   4      13.957599999999999      6.6703400000000004      4.7896400000000003
     8   4      14.097899999999999      6.1926600000000001      3.0233300000000001
     9   4      13.415800000000001                 3.96983      3.8004199999999999
    10   4                 13.4732      4.4822300000000004      5.5355600000000003
    11   2                 2.73386                  11.597      23.485299999999999
    12   2      2.5135800000000001                 12.9786      24.157800000000002
    13   7      2.6729500000000002                 12.5503      25.679200000000002
    14   2      3.3006199999999999                 11.3673      25.700900000000001
    15   7      3.7080299999999999      10.835699999999999                 26.7011
    16   7                  3.4558      10.808400000000001      24.447099999999999
    17   4      3.2882500000000001                 11.4184      22.567900000000002
    18   4                 1.77312      11.162800000000001      23.283000000000001
    19   4      1.4995700000000001                 13.3858      24.127099999999999
    20   4      3.2917100000000001      13.718500000000001                 24.0791
    21   2      2.6663399999999999                 2.36694                 16.2364
    22   2      3.9961799999999998      1.8727100000000001                 15.9297
    23   7      4.2148000000000003      2.4973000000000001      14.586499999999999
    24   2      2.9848599999999998                 2.78206      14.065300000000001
    25   7      2.7547299999999999      2.8572799999999998                 12.8446
    26   7      2.1112000000000002      2.8201999999999998                 15.0137
    27   4      2.6304699999999999                 3.26214                 16.8231
    28   4      2.0213999999999999      1.6121799999999999      16.627099999999999
    29   4                 4.06996     0.80618900000000004                 15.7349
    30   4      4.7261499999999996      2.2380300000000002                 16.6191
    31   2      11.431900000000001               -0.473109     -1.6345099999999999
    32   2                 10.3553   -0.072922000000000001     -2.6017800000000002
    33   7                 10.4397      1.4164600000000001     -2.5652200000000001
    34   2                 11.2453      1.8384199999999999                -1.49159
    35   7      11.479699999999999      2.9817999999999998     -1.2134799999999999
    36   7      11.787100000000001     0.71140800000000004    -0.86637200000000003
    37   4                 12.3416    -0.80096100000000003                -2.14134
    38   4                 11.0701     -1.1788000000000001    -0.89775300000000002
    39   4      9.3808299999999996    -0.53629800000000005     -2.4534500000000001
    40   4      10.579499999999999    -0.26827299999999998     -3.6481499999999998
    41   2      7.8897199999999996                 4.98088                 17.9206
    42   2      8.2609100000000009      5.6052099999999996      16.561199999999999
    43   7      7.0191800000000004      5.8137600000000003      15.863799999999999
    44   2      5.9763599999999997                 5.40137      16.639399999999998
    45   7                 4.84544      5.3741700000000003      16.219999999999999
    46   7      6.3715900000000003      5.0173800000000002      17.829799999999999
    47   4      8.2642600000000002      5.6399400000000002      18.712900000000001
    48   4      8.3399000000000001      3.9943399999999998      18.148599999999998
    49   4      8.8662500000000009      4.9663300000000001                 15.9147
    50   4      8.7958400000000001      6.5890500000000003      16.718399999999999
    51   2      12.240500000000001      1.1867000000000001      5.9798299999999998
    52   2      11.802199999999999                 2.60547      5.8856299999999999
    53   7      10.374700000000001      2.5467499999999998      6.3940599999999996
    54   2                 10.1121      1.3438699999999999      7.0422000000000002
    55   7      9.1130700000000004      1.1179600000000001      7.7254100000000001
    56   7                 11.1754                0.496083      6.8779300000000001
    57   4                 13.2128     0.93462800000000001      6.4001200000000003
    58   4      12.137600000000001     0.64087799999999995      5.0145600000000004
    59   4                 11.8094                 2.94537      4.8675800000000002
    60   4      12.236700000000001      3.3107000000000002      6.5088100000000004
    61   2                -13.9156     -6.5008499999999998      9.3607600000000009
    62   2     -13.048500000000001     -6.7763299999999997      8.1731499999999997
    63   7     -11.746600000000001     -7.1217199999999998      8.7305200000000003
    64   2                  -12.06     -7.7496099999999997      9.9256799999999998
    65   7                -11.4048     -8.5355899999999991                 10.5136
    66   7                -13.3162     -7.4557599999999997                 10.2822
    67   4     -14.966900000000001     -6.6894900000000002      9.2343100000000007
    68   4     -13.719900000000001     -5.4138400000000004      9.7922899999999995
    69   4                -12.9688     -5.8587600000000002      7.5872599999999997
    70   4                -13.3119     -7.6911899999999997      7.6314000000000002
    71   2      10.294700000000001      24.369700000000002                -11.0467
    72   2                 11.2524      24.867100000000001     -9.9694900000000004
    73   7      12.588699999999999      24.752600000000001                -10.6119
    74   2                 12.3741      24.748100000000001                -11.9823
    75   7                 13.2597      24.782399999999999                -12.7514
    76   7      11.055099999999999      24.553899999999999     -12.244400000000001
    77   4      9.4164999999999992      25.000499999999999     -11.183199999999999
    78   4      10.032299999999999      23.315999999999999                -11.0222
    79   4                 11.2157      24.175899999999999     -9.1303900000000002
    80   4                 11.1675      25.885000000000002     -9.6842400000000008
    81   2      6.6558799999999998      12.960900000000001                 4.95092
    82   2      6.1592799999999999      14.409599999999999      4.9893900000000002
    83   7      5.4516900000000001                 14.4763      6.2983500000000001
    84   2      5.6298599999999999      13.382899999999999      6.9682000000000004
    85   7      5.3686600000000002                 13.2941      8.1726600000000005
    86   7      6.4069000000000003                 12.4672      6.2734699999999997
    87   4                 7.71896      12.914300000000001      4.7613000000000003
    88   4      6.1557000000000004      12.228899999999999      4.2560900000000004
    89   4      5.5099299999999998      14.676500000000001      4.1262100000000004
    90   4      6.9749400000000001      15.113899999999999      5.0849500000000001
    91   2     -2.4685199999999998                 14.3637      2.4318399999999998
    92   2     -2.1477200000000001      14.869899999999999                 1.02895
    93   7     -1.5677700000000001                  13.661     0.34964000000000001
    94   2                -1.16645                 12.7727      1.3066199999999999
    95   7    -0.47961300000000001                 11.7949      1.1117900000000001
    96   7                -1.76956      13.034700000000001      2.4842300000000002
    97   4     -3.5438499999999999                 14.1919      2.6393800000000001
    98   4     -2.0273300000000001      14.968999999999999      3.2511700000000001
    99   4     -1.5034400000000001                 15.7783     0.89282700000000004
   100   4                -3.03796      15.133900000000001     0.43534800000000001
   101   2      3.4733200000000002      7.8490500000000001                 6.44963
   102   2      2.9520400000000002      6.4158299999999997      6.3604200000000004
   103   7      1.5448500000000001      6.6231200000000001                 6.78477
   104   2      1.5269299999999999      7.7124499999999996      7.5716999999999999
   105   7     0.51805900000000005      7.8889899999999997      8.2726299999999995
   106   7                 2.58866      8.5597300000000001      7.3712900000000001
   107   4      3.3442699999999999      8.2898099999999992      5.4573799999999997
   108   4      4.6005900000000004      7.8940700000000001      6.6956100000000003
   109   4      3.5693000000000001      5.7629400000000004      6.9991000000000003
   110   4      2.7995899999999998      5.9302099999999998      5.4203400000000004
   111   2     -5.7351400000000003                -2.51003     -2.0256500000000002
   112   2     -5.0149800000000004     -3.8703400000000001                -1.83399
   113   7     -6.0885100000000003     -4.8595499999999996                -1.75664
   114   2     -7.2219899999999999     -4.3631200000000003     -2.3246799999999999
   115   7     -8.2446900000000003     -4.8683800000000002     -2.5680499999999999
   116   7     -7.0517399999999997                -2.97098     -2.4889600000000001
   117   4     -5.3073199999999998     -1.9369799999999999     -2.8705500000000002
   118   4     -5.9019700000000004     -1.8774999999999999     -1.1342099999999999
   119   4     -4.3204399999999996                -3.94442    -0.97769700000000004
   120   4     -4.5021500000000003     -4.0754900000000003     -2.8035999999999999
   121   2      22.748100000000001      16.055199999999999      5.9850599999999998
   122   2                 24.2209      15.710800000000001      5.9843799999999998
   123   7      25.048300000000001      16.930700000000002      5.7113100000000001
   124   2      24.118400000000001      17.941299999999998      5.8664899999999998
   125   7                 24.3064                 19.1266      5.7975199999999996
   126   7      22.832599999999999      17.527899999999999      6.0619300000000003
   127   4      22.300899999999999                 15.6494      6.9029400000000001
   128   4      22.274699999999999                 15.7125      5.0597099999999999
   129   4      24.498699999999999                  14.945                  5.2599
   130   4                 24.4649      15.412100000000001      7.0174000000000003
   131   2                 12.1464      19.692900000000002      15.918100000000001
   132   2                 13.1501      18.541899999999998                 16.0547
   133   7      14.078900000000001      18.783999999999999                 14.8879
   134   2      13.243499999999999      19.416399999999999                 13.9474
   135   7      13.536899999999999      19.468399999999999      12.773999999999999
   136   7                 12.1448                  20.041                 14.5054
   137   4                 12.5321      20.513300000000001      16.523800000000001
   138   4      11.085800000000001                 19.4754      16.202999999999999
   139   4      12.619199999999999      17.572099999999999      15.914400000000001
   140   4      13.641299999999999      18.734500000000001      17.008199999999999
   141   2      24.051500000000001      24.830200000000001      5.7275099999999997
   142   2                  23.096      23.992799999999999                 6.62744
   143   7                 21.7196      24.417899999999999      6.1604299999999999
   144   2      21.809100000000001      25.428100000000001      5.2431299999999998
   145   7      20.905999999999999      26.054300000000001      4.7218600000000004
   146   7                 23.1297      25.671900000000001      4.9095800000000001
   147   4      24.525300000000001      24.253599999999999                 4.98123
   148   4      24.694500000000001      25.631599999999999      6.1838199999999999
   149   4      23.243400000000001                 24.1477                 7.69672
   150   4      23.109100000000002      22.906400000000001                 6.46333
   151   2     -5.6429799999999997                 16.0623     -6.1366800000000001
   152   2     -4.4993699999999999      16.371099999999998     -7.2024100000000004
   153   7     -3.9243899999999998                 17.6982     -6.7341499999999996
   154   2     -4.5835100000000004      18.007300000000001                -5.51858
   155   7                -4.19991      18.915700000000001     -4.8559599999999996
   156   7     -5.5741699999999996      17.140899999999998     -5.2556500000000002
   157   4     -5.5164999999999997      15.069900000000001     -5.6692200000000001
   158   4     -6.6857600000000001                 16.0852     -6.5509700000000004
   159   4     -4.8523399999999999      16.427900000000001     -8.2231199999999998
   160   4     -3.6258400000000002      15.633699999999999     -7.1905700000000001
   161   2     -1.7885800000000001                 12.8675                 14.8714
   162   2               -0.269347                  13.135                 14.5747
   163   7    0.091786499999999993      12.143000000000001                 13.5372
   164   2                -1.06013                 11.4361      13.201599999999999
   165   7                -1.21529                 10.5555      12.366400000000001
   166   7     -2.1478700000000002                 11.7744      13.973100000000001
   167   4     -2.4065099999999999      13.756399999999999      14.577299999999999
   168   4     -2.1411899999999999                 12.6363      15.900399999999999
   169   4     0.34210499999999999      12.883900000000001                 15.4261
   170   4   -0.027928600000000001      14.132400000000001                  14.167
   171   2      20.020099999999999      25.235600000000002                 21.9238
   172   2      21.307099999999998                 24.4726      22.145199999999999
   173   7                   20.73                 23.3535      22.963699999999999
   174   2      19.749500000000001      23.872299999999999      23.759699999999999
   175   7      19.244700000000002                 23.3415      24.708400000000001
   176   7      19.332699999999999      25.020299999999999      23.221399999999999
   177   4      19.429300000000001      24.898199999999999                 21.1204
   178   4      20.056999999999999      26.305299999999999      21.896699999999999
   179   4      22.060500000000001      25.115300000000001      22.617899999999999
   180   4                 21.7043      24.024100000000001      21.174900000000001
   181   2                 15.5747                 10.3446                 14.7424
   182   2                 16.3721                 11.3132                 15.5039
   183   7      16.459499999999998                 12.4937                 14.6412
   184   2      15.311500000000001      12.521100000000001      13.951000000000001
   185   7      14.922599999999999      13.465400000000001                 13.2553
   186   7      14.642799999999999      11.376300000000001                 14.1205
   187   4      14.899699999999999      9.6759900000000005                 15.3865
   188   4                 16.1524      9.7579499999999992      13.983000000000001
   189   4      17.397400000000001                 10.9087      15.629300000000001
   190   4      16.037299999999998      11.648099999999999      16.514900000000001
   191   2      17.383400000000002      25.227900000000002                  19.093
   192   2                 16.2803      25.849599999999999      18.238900000000001
   193   7      15.175800000000001      24.853000000000002      18.354500000000002
   194   2      15.715199999999999      23.607299999999999      18.857500000000002
   195   7      15.158899999999999      22.532299999999999      18.701799999999999
   196   7      16.945499999999999      23.831199999999999      19.372299999999999
   197   4      17.479299999999999      25.629300000000001      20.144600000000001
   198   4                 18.3003      25.123899999999999      18.688400000000001
   199   4      16.509499999999999                 25.9907      17.214700000000001
   200   4                 15.8941      26.815200000000001                 18.5562
   201   2      14.095000000000001      13.555199999999999      21.673400000000001
   202   2      14.814299999999999                 14.5227      22.651900000000001
   203   7      16.210100000000001                 14.0844      22.378399999999999
   204   2      16.315000000000001                 13.4338      21.230599999999999
   205   7      17.367899999999999                 13.2195                 20.6296
   206   7      15.042999999999999                 13.3683      20.606300000000001
   207   4      13.178699999999999                 14.1333      21.299700000000001
   208   4                 13.7799                 12.5494      22.084800000000001
   209   4      14.640700000000001                 14.5352                  23.718
   210   4      14.764900000000001      15.516400000000001      22.221499999999999
   211   2      19.364000000000001                 15.6249      19.320900000000002
   212   2                 20.4602      15.071400000000001                 18.3582
   213   7      19.900700000000001      13.849399999999999      17.969000000000001
   214   2      18.497699999999998                 13.9903                 18.0214
   215   7                 17.7882                 13.1272      17.590900000000001
   216   7                 18.0915      15.155799999999999                 18.5654
   217   4                 19.3935                 16.7149      19.412400000000002
   218   4      19.393999999999998      15.266999999999999      20.427700000000002
   219   4      21.459700000000002                 14.9506                 18.7774
   220   4                 20.5214      15.738200000000001      17.444299999999998
   221   2                -4.46021      18.085100000000001      6.4858900000000004
   222   2     -3.1508500000000002                 17.6435      5.7511099999999997
   223   7     -2.7922799999999999      18.935300000000002      5.1620200000000001
   224   2     -3.5886800000000001                 19.9788      5.5440199999999997
   225   7     -3.5022000000000002      21.130700000000001      5.1087699999999998
   226   7     -4.3524900000000004      19.591999999999999                 6.58345
   227   4     -4.5101300000000002                 17.7502      7.5860799999999999
   228   4     -5.3040000000000003      17.781199999999998      5.8605499999999999
   229   4     -3.2307299999999999      16.880299999999998      4.9737999999999998
   230   4     -2.2636500000000002      17.488399999999999      6.4276200000000001
   231   2                 11.9276                 17.8795      21.625399999999999
   232   2                 10.4232                 18.1004      22.051100000000002
   233   7      9.8379300000000001      16.847799999999999                 21.5976
   234   2                 10.7494      15.873200000000001                  21.625
   235   7      10.483599999999999      14.668900000000001      21.500299999999999
   236   7                 12.0167      16.403099999999998                 21.7852
   237   4      12.649800000000001                 18.3565                 22.3308
   238   4      12.095599999999999      17.990200000000002      20.583600000000001
   239   4      9.9737200000000001      18.915700000000001                 21.5258
   240   4                 10.2281                 18.1891      23.109200000000001
   241   2      6.1086999999999998      21.023199999999999      18.649999999999999
   242   2      6.3698899999999998      22.521100000000001      18.314800000000002
   243   7      5.2284100000000002      23.266400000000001      18.834900000000001
   244   2      4.3810099999999998                 22.3794      19.400300000000001
   245   7                  3.2719                 22.6769                 19.9132
   246   7      4.7956899999999996      21.089300000000001      19.355799999999999
   247   4      6.7747299999999999      20.499700000000001      19.303599999999999
   248   4      5.9764600000000003                 20.4026      17.762899999999998
   249   4      6.4491899999999998      22.704499999999999      17.252400000000002
   250   4                 7.25786      22.933199999999999      18.809000000000001
   251   2      18.936499999999999      19.654199999999999                  1.9742
   252   2      19.214099999999998      18.170300000000001      2.0343100000000001
   253   7      19.125599999999999                 17.7346     0.61684099999999997
   254   2      19.590599999999998      18.836500000000001   -0.088212899999999997
   255   7      20.115100000000002      18.708600000000001                -1.21095
   256   7      19.467400000000001                 20.0182     0.59284000000000003
   257   4      19.333100000000002      20.235399999999998                 2.80599
   258   4      17.877300000000002      19.857600000000001      1.9813000000000001
   259   4                 18.4773                 17.4711                 2.62921
   260   4      20.255400000000002      18.094200000000001                 2.37812
   261   2     0.28698600000000002                 11.3134     -3.4937499999999999
   262   2     0.65625199999999995                 12.3246                -2.36612
   263   7      1.5173300000000001      11.517200000000001                -1.44163
   264   2      1.7272400000000001      10.373699999999999     -1.9690799999999999
   265   7      2.3805700000000001                 9.41282     -1.4559200000000001
   266   7      1.2371799999999999                 10.2521     -3.1945399999999999
   267   4     0.68696199999999996                 11.6761     -4.3862100000000002
   268   4    -0.76340200000000003                 11.0481                -3.46543
   269   4    -0.27826499999999998      12.561400000000001                -1.79234
   270   4      1.3532999999999999      13.152799999999999     -2.5771999999999999
   271   2      6.2791199999999998      11.476100000000001      10.896800000000001
   272   2      7.5383199999999997                  10.897                 10.4169
   273   7      7.2617099999999999      9.5148899999999994                 10.2216
   274   2                 5.91927      9.3524100000000008                 10.1266
   275   7      5.3972600000000002      8.3697499999999998      9.6325800000000008
   276   7      5.2660499999999999                 10.4064                  10.666
   277   4      5.9270699999999996      12.299799999999999      10.349299999999999
   278   4      6.2249100000000004                 11.8185                 11.9947
   279   4      8.3659199999999991      10.880800000000001                  11.122
   280   4      7.8984300000000003                 11.4129      9.5246200000000005
   281   2      7.5889100000000003      4.8431199999999999                 12.8467
   282   2      6.7874800000000004      3.8108599999999999                 13.5921
   283   7      6.3283300000000002                 2.88348      12.528700000000001
   284   2      6.8839199999999998      3.2576900000000002      11.438000000000001
   285   7                 6.79793      2.6049799999999999                 10.3833
   286   7      7.4689899999999998      4.4785500000000003                 11.4793
   287   4      8.6285799999999995      4.7732999999999999      13.129099999999999
   288   4      7.2654399999999999      5.9201100000000002      12.976699999999999
   289   4      5.8786800000000001      4.1435199999999996      14.114599999999999
   290   4      7.4059299999999997      3.2161900000000001                 14.3218
   291   2      16.359500000000001      4.2690099999999997      9.6345100000000006
   292   2                 15.9611                 4.08514      8.2066700000000008
   293   7                 15.6776      5.4970100000000004      7.7357699999999996
   294   2                  15.387      6.1896300000000002      8.8647899999999993
   295   7      14.925599999999999      7.3191499999999996      8.9530600000000007
   296   7                 15.6633      5.4897400000000003      9.9968199999999996
   297   4      17.394600000000001      4.4125199999999998      9.9368499999999997
   298   4      15.896699999999999      3.4428800000000002                 10.1915
   299   4      15.062799999999999      3.4635400000000001      8.1585900000000002
   300   4                 16.7517      3.6836199999999999      7.5670799999999998
   301   2      22.013999999999999                 10.5885      5.4644300000000001
   302   2      20.487400000000001                 10.9841      5.6749000000000001
   303   7                 19.7561      9.8745100000000008      5.0735900000000003
   304   2      20.595400000000001      8.9038699999999995                 4.62155
   305   7      20.330500000000001      7.8508699999999996      4.0644400000000003
   306   7      21.950700000000001      9.3991199999999999      4.6867299999999998
   307   4                 22.5642                 10.4154      6.4572599999999998
   308   4      22.607099999999999      11.389699999999999      4.9241900000000003
   309   4      20.290600000000001      11.898300000000001      5.0979799999999997
   310   4                 20.2393                 11.1006      6.7423299999999999
   311   2    -0.50085500000000005                 18.6249                 13.7646
   312   2     0.95323199999999997      18.814399999999999                 13.9397
   313   7      1.2021599999999999      18.150300000000001                 15.1915
   314   2                0.227993      17.224699999999999                 15.3957
   315   7                0.205764      16.479199999999999      16.346800000000002
   316   7    -0.72060199999999996      17.353400000000001                 14.4438
   317   4    -0.84551600000000005                  18.552      12.726100000000001
   318   4     -1.1806300000000001      19.326899999999998                 14.2608
   319   4                 1.42177      19.819099999999999      14.015499999999999
   320   4                 1.49516      18.279199999999999      13.140700000000001
   321   2                 11.9466     -7.4941199999999997      16.979399999999998
   322   2                 13.3432     -7.1011600000000001                 16.4939
   323   7                 14.2723     -8.0928799999999992      17.087499999999999
   324   2                 13.5261     -9.0844400000000007                 17.6357
   325   7                 14.1281                -10.0718      18.139600000000002
   326   7      12.185499999999999     -8.8461700000000008      17.495699999999999
   327   4                 11.2464     -7.5646699999999996      16.132200000000001
   328   4      11.630100000000001     -6.8731799999999996                 17.8324
   329   4      13.750400000000001     -6.1047200000000004                  16.759
   330   4                  13.526     -7.2274200000000004      15.385199999999999
   331   2      16.087900000000001      21.620999999999999                 15.6694
   332   2                 15.1225      22.346399999999999      14.607100000000001
   333   7      15.740399999999999      23.579999999999998      14.388400000000001
   334   2      16.932400000000001      23.698499999999999                 15.0373
   335   7      17.684100000000001      24.627700000000001                 14.9977
   336   7      17.106300000000001      22.648199999999999      15.801399999999999
   337   4      16.613700000000001      20.754999999999999                 15.2601
   338   4                 15.7257                 21.4573      16.705300000000001
   339   4      14.110099999999999      22.446400000000001                 14.9794
   340   4                 15.0585                 21.8431      13.689399999999999
   341   2      19.960599999999999    -0.33101399999999997      18.459900000000001
   342   2                 20.6021    -0.49952800000000003      17.078600000000002
   343   7      21.359100000000002     0.79204300000000005      16.825500000000002
   344   2      20.811199999999999      1.7105600000000001                 17.7699
   345   7      21.072199999999999      2.8708300000000002      17.901499999999999
   346   7                 19.9621      1.1211599999999999      18.624199999999998
   347   4                 20.5915    -0.71995500000000001                 19.2441
   348   4      18.908799999999999    -0.68772299999999997      18.587499999999999
   349   4                 19.8552    -0.44902399999999998      16.360800000000001
   350   4                  21.343     -1.2694399999999999      16.800899999999999
   351   2      6.9135799999999996      8.9102800000000002      5.4295200000000001
   352   2      8.0829900000000006      9.2100299999999997                 4.43926
   353   7                 9.06799      10.029299999999999      5.2402800000000003
   354   2      8.5600100000000001                 10.2257      6.5407900000000003
   355   7      9.0928799999999992                 10.9572      7.3422499999999999
   356   7      7.3647299999999998      9.5047499999999996      6.6584599999999998
   357   4      6.6224999999999996      7.8538500000000004      5.6551799999999997
   358   4      6.0574899999999996      9.4989100000000004      5.1029999999999998
   359   4      7.7273800000000001      9.8144100000000005      3.5581399999999999