(written by ASE)

915 atoms
9 atom types

0.0      21.712770568302616  xlo xhi
0.0      21.712770568302616  ylo yhi
0.0      21.712770568302616  zlo zhi

Atoms # atomic

     1   2                 15.1777      4.3657899999999996      4.1115399999999998
     2   2      15.095800000000001      2.9976400000000001      4.7891599999999999
     3   7      16.466000000000001      2.7092299999999998      5.1159299999999996
     4   2      17.269600000000001      3.7090100000000001      4.6964899999999998
     5   7      18.485499999999998      3.6822300000000001                 4.96286
     6   7      16.665800000000001      4.6419600000000001      4.0455100000000002
     7   4      14.736499999999999      5.1798099999999998      4.7582899999999997
     8   4                 14.8688      4.4469099999999999                 3.03423
     9   4                 14.6241      2.1847400000000001      4.2148000000000003
    10   4                 14.5382                 3.02996      5.7612500000000004
    11   2      2.3698199999999998                 12.3299      25.074000000000002
    12   2                 3.48536      13.292400000000001      25.278199999999998
    13   7      4.4903300000000002                 12.3146      25.705300000000001
    14   2      4.2220899999999997                 11.1031                 25.0703
    15   7      5.0022000000000002                 10.1966                 25.0654
    16   7      2.9917600000000002                 11.1037      24.524100000000001
    17   4      1.5841499999999999                 12.5608                 24.3111
    18   4      1.8555900000000001      12.090400000000001      25.989000000000001
    19   4      3.3394499999999998                 13.9916                 26.0883
    20   4      3.8430300000000002                 13.8443                 24.3874
    21   2      2.6252200000000001                  1.6675      16.112500000000001
    22   2      4.0855100000000002      2.0077699999999998      16.173300000000001
    23   7      4.5858699999999999                 1.91629      14.911099999999999
    24   2      3.5708299999999999      1.6577500000000001      14.057600000000001
    25   7      3.7375699999999998                 1.39123                 12.8881
    26   7      2.3995799999999998      1.7047399999999999      14.709300000000001
    27   4                 1.94699      2.4517500000000001      16.467300000000002
    28   4      2.3443000000000001     0.72334100000000001      16.496400000000001
    29   4      4.6451200000000004      1.3855200000000001      16.951599999999999
    30   4      4.2336900000000002      3.1200600000000001      16.519300000000001
    31   2      12.528700000000001     0.42599199999999998                -1.46156
    32   2                 11.5496     0.59872899999999996               -0.335034
    33   7      10.626899999999999                 1.62697    -0.89544400000000002
    34   2      10.746499999999999      1.5660799999999999                -2.22702
    35   7                 10.0274      2.1642600000000001     -3.0364499999999999
    36   7                  11.815     0.80752900000000005                -2.66892
    37   4                 12.7842    -0.62201099999999998     -1.6867399999999999
    38   4                 13.4429      1.0195099999999999     -1.2897799999999999
    39   4                 12.0824                 1.05653     0.50196700000000005
    40   4      10.934100000000001               -0.198271     0.13723199999999999
    41   2      7.4318400000000002                 5.04758                 18.6996
    42   2      8.3116800000000008      5.7741400000000001                 17.6158
    43   7      7.2930599999999997      6.2256600000000004      16.640999999999998
    44   2      6.0512600000000001      5.8274100000000004      16.995100000000001
    45   7      5.0582099999999999                 5.91547      16.288699999999999
    46   7      6.0616300000000001      5.1262400000000001                 18.1266
    47   4      7.5217400000000003      5.4097200000000001      19.724599999999999
    48   4      7.6828399999999997      3.9719199999999999                 18.8307
    49   4      8.9686299999999992                 4.96753      17.206499999999998
    50   4                 8.86435      6.5842999999999998                 17.9697
    51   2      11.620200000000001      1.5845400000000001      5.1046100000000001
    52   2      10.444100000000001      2.4774799999999999      4.6809599999999998
    53   7      9.6602399999999999      2.6059199999999998      5.9150600000000004
    54   2                  10.028      1.4721299999999999                 6.66343
    55   7      9.3805999999999994      1.1216200000000001      7.6228699999999998
    56   7                 11.1027     0.77102400000000004      6.2442799999999998
    57   4                 12.5077                 2.06677      5.6216900000000001
    58   4                 12.1084     0.89608299999999996      4.4135799999999996
    59   4      9.7481000000000009      1.9745600000000001      3.9556800000000001
    60   4      10.752599999999999      3.5003299999999999      4.2540100000000001
    61   2     -12.343299999999999     -7.0711000000000004      9.2842300000000009
    62   2     -11.773999999999999     -7.4923799999999998      7.9313099999999999
    63   7                -10.6326     -8.2283000000000008      8.3199799999999993
    64   2     -10.569599999999999     -8.4131499999999999      9.6252700000000004
    65   7     -9.6684099999999997     -9.1248900000000006                 10.1191
    66   7     -11.630100000000001     -7.8264500000000004      10.257899999999999
    67   4     -13.354100000000001     -7.3838499999999998      9.3524700000000003
    68   4     -12.111800000000001     -6.0522200000000002      9.4406300000000005
    69   4                -11.4964     -6.5899799999999997                 7.32348
    70   4                -12.3508     -8.1431699999999996      7.2678500000000001
    71   2      10.354100000000001      25.237400000000001                -11.2278
    72   2                 11.5413      25.551400000000001                -10.3886
    73   7                 12.6195                 24.9055                -11.1066
    74   2                 12.2768      24.959800000000001                 -12.468
    75   7      13.064500000000001      24.850000000000001     -13.355700000000001
    76   7                 10.9541                 25.1724     -12.601000000000001
    77   4      9.6617999999999995      26.066700000000001                -11.1309
    78   4      9.8887599999999996                  24.238     -11.136100000000001
    79   4      11.600099999999999                 25.2028     -9.3668099999999992
    80   4                 11.7814      26.596299999999999                 -10.442
    81   2      6.6760000000000002      15.091200000000001      5.3960299999999997
    82   2      5.3075099999999997                 15.6387      5.8701400000000001
    83   7      5.0197700000000003                 14.8139      7.0121599999999997
    84   2                 6.11036      13.974600000000001      7.3013599999999999
    85   7                 6.20153                 13.2303      8.2504100000000005
    86   7      7.1321300000000001      14.241199999999999      6.5385900000000001
    87   4      7.3775399999999998                 15.9232                 5.29718
    88   4                 6.69808      14.457000000000001      4.4662199999999999
    89   4      4.4555199999999999      15.609299999999999      5.1349299999999998
    90   4      5.4394299999999998                 16.6267      6.2404799999999998
    91   2     -2.0426600000000001      15.113899999999999      3.4174699999999998
    92   2                -3.19103                 14.9678                 2.38931
    93   7     -2.8400500000000002                 13.8172      1.6532899999999999
    94   2     -1.6894400000000001                 13.3003      2.1549399999999999
    95   7                -1.06514                 12.3697                 1.65893
    96   7     -1.2899099999999999                 13.8451      3.3817200000000001
    97   4                 -2.4434                 15.1914      4.4237000000000002
    98   4                -1.36117      15.922700000000001      3.1014300000000001
    99   4     -3.2061500000000001                 15.8567      1.7575799999999999
   100   4     -4.2457099999999999      14.910299999999999      2.7515900000000002
   101   2      3.7024300000000001                 9.54209      7.1194199999999999
   102   2      3.2473700000000001      8.1447800000000008      7.5415700000000001
   103   7                 1.85351      8.4151600000000002      8.0426000000000002
   104   2      1.3581000000000001      9.6116600000000005      7.4812399999999997
   105   7     0.25251099999999999                 10.0311      7.5849900000000003
   106   7      2.4268200000000002      10.237399999999999      6.8801399999999999
   107   4      4.2972299999999999      9.7127499999999998                 6.25807
   108   4      4.1642599999999996                 10.0573                 8.03172
   109   4      3.9726300000000001      7.8377400000000002      8.3240300000000005
   110   4                 3.23353      7.3297499999999998                 6.81067
   111   2     -6.5552599999999996     -3.2922799999999999                -1.86182
   112   2                -6.38659     -4.5503499999999999                -1.01322
   113   7     -7.1833900000000002     -5.4914800000000001     -1.8011900000000001
   114   2     -8.0608500000000003     -4.7450999999999999     -2.5654699999999999
   115   7     -9.0474599999999992     -5.3520200000000004     -3.0908199999999999
   116   7     -7.9035299999999999     -3.4273400000000001                -2.43567
   117   4     -5.8376999999999999     -3.2713999999999999     -2.6760199999999998
   118   4                -6.47201     -2.4620899999999999     -1.1626000000000001
   119   4     -6.9180999999999999                -4.42178              -0.0481631
   120   4     -5.3792099999999996     -5.0374400000000001    -0.79314300000000004
   121   2                 21.8811      16.954599999999999      5.7012499999999999
   122   2      22.880500000000001      15.984999999999999      5.2482899999999999
   123   7                 23.9237      16.938700000000001      4.8138500000000004
   124   2      23.793099999999999      18.135300000000001      5.3686400000000001
   125   7                 24.6037      19.031199999999998      5.1604999999999999
   126   7      22.572099999999999      18.137599999999999      6.0330599999999999
   127   4      21.374600000000001                 16.5291      6.5960000000000001
   128   4      21.144500000000001      17.176100000000002      4.8527300000000002
   129   4      22.563199999999998      15.194599999999999      4.4711699999999999
   130   4      23.319199999999999      15.486599999999999      6.0928800000000001
   131   2                 10.9924      19.335999999999999                 15.7759
   132   2                 12.1013      18.391500000000001      16.373899999999999
   133   7                 13.0328                 18.1676      15.178900000000001
   134   2                 12.7956                 19.1875      14.289199999999999
   135   7                 13.4518                 19.2653                  13.241
   136   7      11.831300000000001                 20.0717                 14.7006
   137   4      10.476000000000001      20.090499999999999                 16.3888
   138   4                  10.269      18.709299999999999      15.213800000000001
   139   4                 11.6332      17.385400000000001      16.559999999999999
   140   4                 12.5916      18.857500000000002      17.194199999999999
   141   2                 24.8916      25.339600000000001      6.4969900000000003
   142   2      24.139299999999999      24.237500000000001      7.2541700000000002
   143   7      22.910699999999999      24.062899999999999      6.4799300000000004
   144   2      22.793299999999999      25.090900000000001      5.5845000000000002
   145   7      21.834900000000001      25.124199999999998      4.8291000000000004
   146   7      23.837900000000001                 25.9651      5.6329799999999999
   147   4      25.568000000000001                 24.8337      5.8313899999999999
   148   4      25.290800000000001      26.102799999999998      7.1235099999999996
   149   4                 23.8035                 24.3062      8.2623800000000003
   150   4      24.548300000000001      23.257000000000001      7.2678900000000004
   151   2     -5.4941500000000003      16.318899999999999     -6.5910599999999997
   152   2     -4.3190099999999996      16.703800000000001     -7.5387300000000002
   153   7                -3.65822      17.735800000000001                -6.79556
   154   2     -4.3621100000000004      18.062899999999999     -5.6484399999999999
   155   7     -3.9750100000000002      18.846800000000002     -4.7877200000000002
   156   7     -5.5545999999999998                 17.4543     -5.6589400000000003
   157   4     -5.2741899999999999                 15.3681     -6.0270999999999999
   158   4     -6.5388299999999999      16.291899999999998     -6.9414999999999996
   159   4     -4.8010799999999998                 17.0334     -8.4356299999999997
   160   4                -3.67319      15.935700000000001     -7.7737699999999998
   161   2     -1.6779500000000001                  13.353                 14.5632
   162   2    -0.27255400000000002      13.981400000000001      14.571400000000001
   163   7                0.473908                 13.1358      13.687099999999999
   164   2    -0.31165500000000002      12.159700000000001      13.123900000000001
   165   7     0.12632099999999999      11.293699999999999                 12.3406
   166   7                -1.60754                 12.3245      13.549200000000001
   167   4                -2.55124      13.983000000000001                 14.4665
   168   4     -1.8530500000000001                 12.8079      15.507899999999999
   169   4    0.090653999999999998                 14.0305                  15.596
   170   4               -0.118045      14.998200000000001      14.146000000000001
   171   2      20.129100000000001      26.044699999999999                 22.7073
   172   2      19.526900000000001      25.011900000000001      21.675999999999998
   173   7      19.421299999999999      23.817299999999999      22.404399999999999
   174   2      19.650400000000001      24.127199999999998      23.763400000000001
   175   7      19.421600000000002      23.302900000000001                 24.6038
   176   7      20.070799999999998      25.353899999999999      23.954000000000001
   177   4                 19.5428                 26.9544      22.741599999999998
   178   4      21.117999999999999      26.364999999999998      22.337199999999999
   179   4      20.234500000000001                 24.8736      20.803000000000001
   180   4      18.576599999999999                 25.2653      21.172899999999998
   181   2      16.134899999999998                 10.7065                 14.9092
   182   2      17.442799999999998                 11.4932                 15.1218
   183   7      17.017399999999999                 12.8409      14.763299999999999
   184   2      15.844900000000001                  12.763      14.046900000000001
   185   7                 15.5032                 13.6915                 13.3574
   186   7                 15.2506                 11.5547                 14.2028
   187   4      15.616199999999999                 10.2806      15.820499999999999
   188   4                 16.3062      9.8855199999999996                 14.1807
   189   4      18.294599999999999                 11.1617                 14.4238
   190   4      17.790500000000002                 11.4947      16.180700000000002
   191   2      17.185300000000002                 24.7927                  18.686
   192   2      15.728199999999999      24.998100000000001      18.279800000000002
   193   7                 15.3024      23.641200000000001      18.210799999999999
   194   2      16.036000000000001      22.895600000000002                 19.0853
   195   7                 15.9499                 21.6935                 19.2667
   196   7      16.994499999999999                 23.6996                 19.6708
   197   4      17.592600000000001      25.632000000000001      19.232199999999999
   198   4      17.803799999999999      24.494900000000001      17.940999999999999
   199   4      15.591900000000001      25.523399999999999      17.324300000000001
   200   4                 15.1686      25.529499999999999      19.024000000000001
   201   2                 12.7271                 13.9556      21.254799999999999
   202   2                 13.6577                 13.9552      22.483799999999999
   203   7                 14.9697                 13.6866      21.965199999999999
   204   2      14.877700000000001                 13.4048      20.650099999999998
   205   7      15.771000000000001                 13.4307      19.842500000000001
   206   7                  13.548                 13.2889      20.221599999999999
   207   4      12.386900000000001                 14.9498                 20.8995
   208   4                 11.7949      13.383599999999999                 21.4695
   209   4      13.412100000000001                 13.0892      23.097200000000001
   210   4      13.727600000000001                 14.8056      23.153199999999998
   211   2                 19.2606      16.382899999999999      18.587399999999999
   212   2      19.267800000000001                  15.609                 19.9102
   213   7      19.482099999999999                 14.1587      19.458300000000001
   214   2      18.954599999999999      14.174200000000001      18.195499999999999
   215   7      18.830300000000001      13.188800000000001                 17.5138
   216   7      18.557400000000001                  15.423                 17.7653
   217   4                 20.2364                 16.7163      18.141500000000001
   218   4                   18.68                 17.2318      18.612200000000001
   219   4                 18.2392      15.690799999999999      20.359500000000001
   220   4      20.076000000000001      15.927099999999999                 20.5733
   221   2     -4.9588000000000001                 18.1296      6.2755599999999996
   222   2     -3.7778700000000001      17.761500000000002      5.3399299999999998
   223   7     -3.0531299999999999      19.009599999999999      5.2308700000000004
   224   2     -3.8533900000000001      20.023299999999999      5.6802799999999998
   225   7     -3.5171299999999999                 21.1738      5.6412000000000004
   226   7     -4.9591700000000003      19.573399999999999      6.2768600000000001
   227   4     -4.7107400000000004      17.931100000000001      7.3863599999999998
   228   4     -5.9243899999999998      17.809899999999999                 5.86524
   229   4     -4.1341799999999997      17.302199999999999      4.3928900000000004
   230   4     -3.0575999999999999      17.008700000000001      5.8109299999999999
   231   2                 10.5656      18.044599999999999                 21.3431
   232   2      9.5255799999999997      18.026399999999999      22.502400000000002
   233   7      9.0101300000000002      16.665600000000001      22.595400000000001
   234   2      9.8533600000000003                 15.8919      21.881399999999999
   235   7      9.7385999999999999                 14.6889                 21.8675
   236   7      10.793699999999999      16.587599999999998      21.186599999999999
   237   4                 11.4626      18.460899999999999      21.827500000000001
   238   4                 10.2578      18.474599999999999      20.427700000000002
   239   4      8.5991300000000006      18.600300000000001      22.302099999999999
   240   4      9.9909099999999995                   18.41                 23.4299
   241   2                 6.62019                 21.6387      17.724399999999999
   242   2      6.8462199999999998                 23.1127                 18.0929
   243   7      5.7580900000000002                 23.2898      19.156600000000001
   244   2      5.2934700000000001      22.100100000000001      19.578099999999999
   245   7      4.4759900000000004      21.974699999999999      20.441500000000001
   246   7      5.8863799999999999                 21.0885      18.869299999999999
   247   4      7.5704799999999999                 21.0747      17.694800000000001
   248   4      6.1078900000000003                 21.4346                 16.8062
   249   4      6.6715200000000001      23.911799999999999      17.383299999999998
   250   4                 7.78531                   23.34                  18.631
   251   2                 19.5441                 19.8567      2.2453599999999998
   252   2      18.648700000000002      18.551500000000001      2.1886899999999998
   253   7                 18.4574      18.396000000000001     0.71533899999999995
   254   2      19.008500000000002      19.438800000000001               0.0305817
   255   7      19.042100000000001      19.493500000000001     -1.1783999999999999
   256   7                  19.555                 20.3736     0.82891899999999996
   257   4      20.617699999999999                 19.6112      2.5633499999999998
   258   4      19.188600000000001      20.646899999999999                 2.92943
   259   4                 17.6557      18.802199999999999      2.5326599999999999
   260   4                  19.137                 17.7379      2.6767099999999999
   261   2     0.75157700000000005                 12.1669     -2.9781399999999998
   262   2      1.5345200000000001                 12.4651                -1.68062
   263   7      2.2181999999999999                 11.1752     -1.4098200000000001
   264   2      2.1813600000000002                 10.3904                -2.50068
   265   7                  2.7296      9.3251799999999996                -2.44584
   266   7      1.5849200000000001      11.013299999999999     -3.4739200000000001
   267   4     0.73847200000000002      12.935600000000001     -3.7564899999999999
   268   4    -0.22529399999999999      11.676600000000001     -2.7496499999999999
   269   4     0.86590599999999995                 12.8584    -0.86799700000000002
   270   4      2.2993000000000001      13.144399999999999                -1.96746
   271   2      7.1952800000000003                 11.4269      11.328900000000001
   272   2      8.2031600000000005                 10.3155                 10.9023
   273   7      7.2606799999999998      9.2226400000000002                 10.5212
   274   2      6.1483400000000001      9.4256100000000007                 11.1775
   275   7      5.2117699999999996                 8.62486                 11.3254
   276   7      6.1247199999999999      10.643000000000001                  11.776
   277   4                 6.89975                  12.186                 10.5585
   278   4      7.5740600000000002                  11.968      12.129899999999999
   279   4      8.8317200000000007      9.8752800000000001                 11.7056
   280   4      8.7922100000000007      10.674899999999999      10.081200000000001
   281   2      7.5836199999999998      4.9521300000000004      13.315099999999999
   282   2      6.2355999999999998      4.2221799999999998                 13.5585
   283   7      5.7993699999999997      3.8582700000000001                 12.2476
   284   2      6.9182800000000002      3.7057199999999999                 11.4688
   285   7      6.8883099999999997      3.2308500000000002                 10.3223
   286   7      7.9669100000000004      4.2901800000000003                 12.0806
   287   4      8.4024300000000007      4.7165499999999998                 13.9641
   288   4      7.5073600000000003      6.0201900000000004                 13.0167
   289   4      5.4468899999999998      4.7972900000000003                 14.0771
   290   4      6.4959699999999998      3.3501799999999999                 14.1713
   291   2      16.277000000000001                 4.21469      9.6450999999999993
   292   2      16.244199999999999                 3.85493      8.1072399999999991
   293   7                 15.9381      5.0859699999999997      7.4363900000000003
   294   2                 16.1799      6.1172899999999997      8.2468800000000009
   295   7      16.423400000000001      7.2517899999999997      7.8723000000000001
   296   7      16.208100000000002      5.7022000000000004      9.5934699999999999
   297   4      17.282699999999998      3.9897200000000002      9.9699100000000005
   298   4      15.503399999999999      3.7171099999999999      10.240600000000001
   299   4                 15.4398                 3.17597      7.8337700000000003
   300   4      17.119499999999999                 3.48549      7.6678199999999999
   301   2      20.998999999999999                 10.6014      4.5763499999999997
   302   2      19.545300000000001      10.771699999999999      4.6029999999999998
   303   7                 19.0884      9.4396400000000007                 5.18377
   304   2      20.104800000000001      8.5983499999999999      5.1894499999999999
   305   7                 19.9496      7.3864299999999998      5.4138599999999997
   306   7      21.360399999999998                 9.17685      4.7240700000000002
   307   4      21.552399999999999                 11.2019      5.3901899999999996
   308   4                  21.378                 10.9368      3.6536400000000002
   309   4      19.006900000000002                 10.8941      3.6878000000000002
   310   4                 19.3401                 11.4703      5.4119299999999999
   311   2      1.2066699999999999      18.270299999999999                 13.0724
   312   2     0.31973000000000001                 19.3934                 13.4916
   313   7   -0.059282700000000001      19.103999999999999      14.826700000000001
   314   2                0.145264      17.742699999999999      15.023099999999999
   315   7    -0.38283099999999998      17.069299999999998      15.850199999999999
   316   7                 1.00648      17.274000000000001      14.069599999999999
   317   4      2.2651599999999998      18.569299999999998                 13.1265
   318   4                 1.01508      17.881499999999999                 12.0603
   319   4    -0.62573400000000001      19.444600000000001                 12.8888
   320   4     0.75455700000000003      20.393599999999999      13.398199999999999
   321   2                 11.3651     -8.2413799999999995      17.482900000000001
   322   2      12.405200000000001     -7.8745599999999998                 16.4377
   323   7                 13.6188     -8.5837299999999992      16.959299999999999
   324   2                 13.1531     -9.6246600000000004                 17.6326
   325   7                 13.8224                -10.5191                 18.1251
   326   7                 11.8004     -9.7019199999999994      17.751200000000001
   327   4                 10.3904     -8.4004200000000004      17.080200000000001
   328   4      11.414400000000001     -7.6986699999999999      18.447099999999999
   329   4                 12.5768     -6.8195399999999999      16.378900000000002
   330   4      12.175700000000001     -8.2496500000000008                 15.4398
   331   2      16.192499999999999      21.676400000000001      15.280099999999999
   332   2                 15.2241      22.420999999999999                 14.4518
   333   7      15.681699999999999      23.803100000000001                 14.4946
   334   2                 16.8048                 23.8581      15.229200000000001
   335   7      17.397500000000001      24.930900000000001                 15.3499
   336   7      17.080500000000001                 22.7163      15.815300000000001
   337   4      16.891400000000001                 21.0563                 14.6639
   338   4                 15.8536      21.156500000000001                 16.1815
   339   4      14.185600000000001      22.378699999999998      14.933999999999999
   340   4                 15.1464      22.157499999999999      13.399699999999999
   341   2                 19.6266    -0.51474500000000001                 17.7531
   342   2                 20.3049              -0.0545309      16.427399999999999
   343   7      20.882300000000001      1.2292400000000001      16.763100000000001
   344   2      20.335899999999999                 1.67327      17.927499999999998
   345   7      20.700800000000001      2.8324500000000001      18.259499999999999
   346   7      19.583100000000002                0.782362      18.531099999999999
   347   4      20.191600000000001                -1.27799      18.198699999999999
   348   4      18.580300000000001               -0.840001      17.679500000000001
   349   4      19.625599999999999   -0.070728100000000002      15.567299999999999
   350   4      21.185400000000001    -0.66342000000000001      16.163900000000002
   351   2      7.4592700000000001                 10.6128      6.2188400000000001
   352   2      8.5266599999999997                 10.6358      5.1543299999999999
   353   7      9.8016199999999998      10.457800000000001      5.8009700000000004
   354   2      9.5511999999999997                 10.5191      7.1304100000000004
   355   7      10.411899999999999      10.370200000000001      7.9564700000000004
   356   7      8.2666599999999999                 10.7994                 7.45261
   357   4      7.0340199999999999      9.6012199999999996                 6.43553
   358   4      6.5942400000000001                 11.2735      6.1542899999999996
   359   4      8.5851000000000006                 11.5884      4.6604200000000002