(written by ASE)

888 atoms
9 atom types

0.0      21.553999999999998  xlo xhi
0.0      21.553999999999998  ylo yhi
0.0                  21.544  zlo zhi

Atoms # atomic

     1   2     -34.212699999999998     -12.598000000000001      19.841000000000001
     2   4     -35.122799999999998                -11.9542                 19.7331
     3   4     -34.337800000000001     -13.539999999999999                 20.2165
     4   7     -33.135899999999999                -12.0169                 20.6723
     5   2     -32.113500000000002     -11.548999999999999      19.916499999999999
     6   7     -31.165500000000002     -10.912599999999999      20.328900000000001
     7   7     -32.317999999999998                 -11.881      18.549900000000001
     8   2     -33.510599999999997                -12.6721                 18.4666
     9   4     -33.015099999999997                -13.6035      18.205100000000002
    10   4     -34.172400000000003     -12.206799999999999      17.672000000000001
    11   2                -26.2621     -6.2313799999999997      5.2651599999999998
    12   4     -25.764900000000001     -7.1179199999999998      4.7712599999999998
    13   4     -25.485099999999999      15.869999999999999      5.8529900000000001
    14   7                -27.4114     -6.9029400000000001      6.0748699999999998
    15   2     -28.463699999999999     -6.9951400000000001      5.2623699999999998
    16   7     -29.455300000000001                -7.59422      5.5627199999999997
    17   7     -28.280999999999999     -6.2641099999999996      4.1247100000000003
    18   2                -27.0565     -5.4667899999999996      4.1710099999999999
    19   4     -27.458100000000002     -4.4886600000000003      4.3129999999999997
    20   4     -26.616399999999999     -5.7134200000000002      3.1871299999999998
    21   2     -26.034700000000001    -0.97909999999999997                 2.11469
    22   4     -25.374199999999998               -0.332424                 1.45763
    23   4     -26.788399999999999     -1.5639700000000001      1.4818499999999999
    24   7     -26.886800000000001   -0.026912999999999999                  2.8626
    25   2     -27.158200000000001    -0.52572099999999999      4.0930200000000001
    26   7     -27.943899999999999   -0.026839499999999999      4.8894799999999998
    27   7                -26.2638                -1.57917      4.3736600000000001
    28   2     -25.313800000000001                -1.63286                 3.28531
    29   4                -25.0228     -2.7139899999999999      3.1090100000000001
    30   4     -24.370100000000001                 -1.1108      3.6398799999999998
    31   2                -16.1844      2.9981200000000001     -1.6070500000000001
    32   4     -16.965599999999998      3.0598999999999998    -0.86541599999999996
    33   4     -15.283300000000001                   2.734     -1.0692299999999999
    34   7     -16.171600000000002      4.2395199999999997     -2.3404400000000001
    35   2     -16.293099999999999      4.0634100000000002                -3.66431
    36   7     -16.079000000000001      4.8568300000000004     -4.5547800000000001
    37   7     -16.593499999999999      2.7289099999999999     -3.9857399999999998
    38   2     -16.532900000000001                 1.92832     -2.7195100000000001
    39   4                -15.7568                 1.12409     -2.6851600000000002
    40   4     -17.530899999999999      1.5178499999999999     -2.5417399999999999
    41   2     -21.232900000000001                -5.70444                 17.8049
    42   4     -20.418800000000001     -5.0152700000000001      17.589600000000001
    43   4     -21.298400000000001     -6.4515799999999999      17.000399999999999
    44   7                -22.5303     -4.9777300000000002      17.972000000000001
    45   2     -23.136500000000002     -5.4858700000000002      19.035499999999999
    46   7                -24.3522     -5.3847199999999997                 19.1843
    47   7     -22.291899999999998     -6.1303999999999998                 19.8796
    48   2     -21.010100000000001     -6.2908499999999998      19.247199999999999
    49   4                -20.6386     -7.3141699999999998                  19.244
    50   4     -20.259399999999999     -5.6896399999999998      19.744399999999999
    51   2                -17.3992      11.493600000000001      14.399900000000001
    52   4     -16.462399999999999      10.989000000000001      14.970499999999999
    53   4     -17.729399999999998                 12.4412      14.842599999999999
    54   7     -18.416399999999999                -11.1135                 14.2913
    55   2     -18.316299999999998                -11.7415      13.047499999999999
    56   7     -19.013300000000001                -12.6152      12.638299999999999
    57   7     -17.259799999999998                 10.2834                 12.3597
    58   2                -16.8293                 11.5433      12.935600000000001
    59   4                -17.1919      12.412100000000001                 12.2415
    60   4                -15.7524      11.510300000000001      13.014900000000001
    61   2     -18.555099999999999     -1.6463099999999999      18.493400000000001
    62   4     -17.975999999999999    -0.75000599999999995      18.736799999999999
    63   4     -19.321000000000002                -1.31637      17.810600000000001
    64   7     -19.149100000000001     -2.3197700000000001      19.685099999999998
    65   2                 -18.497     -3.5244300000000002      19.900300000000001
    66   7                -18.6966     -4.1790500000000002                  20.881
    67   7     -17.537400000000002     -3.7614899999999998      18.995799999999999
    68   2     -17.728999999999999     -2.7421500000000001      17.914999999999999
    69   4     -18.202200000000001                -3.21732      17.074300000000001
    70   4     -16.715299999999999     -2.5475099999999999      17.547000000000001
    71   2     -27.969000000000001      7.5831200000000001     -2.5106899999999999
    72   4     -27.735800000000001      8.5177399999999999     -1.9764299999999999
    73   4                -27.0914      7.3126699999999998     -3.1229900000000002
    74   7     -29.180700000000002      7.6991500000000004     -3.3285900000000002
    75   2     -29.906600000000001                -14.9282                -3.10528
    76   7                -31.0398     -15.128299999999999     -3.5630700000000002
    77   7     -29.371500000000001      5.9090499999999997     -2.1514700000000002
    78   2     -28.237500000000001                 6.50183                -1.47994
    79   4                -27.5016      5.7272600000000002     -1.3303400000000001
    80   4     -28.633700000000001      6.8649100000000001    -0.54921600000000004
    81   2     -30.899999999999999     -11.159000000000001      9.5038900000000002
    82   4     -31.970199999999998     -11.108000000000001      9.5752000000000006
    83   4     -30.701499999999999                -11.7423      10.460900000000001
    84   7     -30.318899999999999     -9.8170900000000003      9.7035300000000007
    85   2     -29.316800000000001     -9.6516500000000001      8.7886199999999999
    86   7     -28.639099999999999     -8.6428700000000003      8.7417599999999993
    87   7     -29.201499999999999     -10.739000000000001      7.9447099999999997
    88   2     -30.256799999999998                -11.6844      8.2218599999999995
    89   4                -29.7178     -12.660299999999999      8.3488199999999999
    90   4                -31.0608                 -11.756      7.4359099999999998
    91   2     -18.642399999999999     -9.9696499999999997      22.909099999999999
    92   4     -19.491199999999999     -10.509499999999999      22.406500000000001
    93   4                -18.8307     -9.9141200000000005                 23.9922
    94   7     -18.556699999999999     -8.5635300000000001      22.424600000000002
    95   2                -17.1934     -8.2340400000000002                 22.4557
    96   7     -16.887599999999999     -7.0542600000000002                 22.3003
    97   7     -16.415500000000002     -9.3243500000000008      22.534400000000002
    98   2     -17.262699999999999     -10.509399999999999                 22.4682
    99   4     -16.806699999999999                 -11.288                 23.1312
   100   4                -17.2516     -10.858599999999999      21.421299999999999
   101   2                -18.6633     -4.3304999999999998      7.8820199999999998
   102   4     -17.620799999999999     -4.1358199999999998      8.0353300000000001
   103   4     -18.840499999999999     -4.6574299999999997      6.7835200000000002
   104   7     -19.382200000000001                -3.15021      8.2342300000000002
   105   2                -20.1646     -3.2397900000000002      9.3309300000000004
   106   7     -20.876200000000001     -2.2589700000000001      9.6865100000000002
   107   7     -20.109400000000001     -4.4620800000000003      9.8625799999999995
   108   2     -19.156300000000002     -5.3128599999999997      9.0445899999999995
   109   4                -19.8169                -6.15951      8.7745999999999995
   110   4     -18.292999999999999                -5.73827      9.6081699999999994
   111   2     -26.169899999999998      6.2903599999999997     -5.5488600000000003
   112   4                -26.8995      6.8120599999999998                 15.4887
   113   4     -26.771999999999998      5.6538500000000003     -4.8374100000000002
   114   7                -25.4422                 7.13605     -4.5394500000000004
   115   2     -24.203800000000001      6.6192500000000001     -4.4099199999999996
   116   7     -23.359300000000001      7.1077899999999996     -3.7093400000000001
   117   7     -23.914999999999999      5.6636899999999999     -5.3607199999999997
   118   2     -25.093599999999999      5.5765900000000004     -6.2889299999999997
   119   4     -25.277000000000001      4.5285099999999998     -6.5555099999999999
   120   4     -24.823699999999999      6.1762600000000001      14.348599999999999
   121   2     -38.097900000000003                -13.9076      22.603999999999999
   122   4                -39.0974     -14.048999999999999      23.046500000000002
   123   4     -37.531300000000002                -13.2639      23.246099999999998
   124   7     -38.167999999999999                -13.2819      21.265999999999998
   125   2     -37.215699999999998     -13.909599999999999      20.495799999999999
   126   7     -36.997900000000001                -13.5961                 19.3659
   127   7     -36.668999999999997                -15.0251      21.072800000000001
   128   2     -37.353200000000001                -15.2644      22.370999999999999
   129   4     -36.673499999999997     -15.478300000000001      23.136399999999998
   130   4     -38.122199999999999                -16.0307      22.102399999999999
   131   2                -16.0899     -8.8346699999999991                 18.2364
   132   4                  -15.17     -8.7540499999999994      17.655799999999999
   133   4                -15.9945     -9.5880500000000008      19.038499999999999
   134   7                -17.2014     -9.1896100000000001      17.388300000000001
   135   2                -18.3689     -8.6626700000000003      17.955400000000001
   136   7     -19.442900000000002     -9.0470299999999995      17.539400000000001
   137   7     -18.085599999999999     -7.7807599999999999                 18.9239
   138   2     -16.602599999999999     -7.5494700000000003      18.948799999999999
   139   4     -16.314599999999999     -7.3971099999999996                  19.991
   140   4                -16.4787                -6.60046                 18.3889
   141   2     -8.5683000000000007     -2.8831799999999999      4.2019200000000003
   142   4     -8.0766500000000008     -3.2766099999999998      3.3220399999999999
   143   4     -30.549399999999999     -1.8653200000000001                 3.96997
   144   7     -29.171299999999999                -2.75509      5.2815300000000001
   145   2     -29.501300000000001     -3.6757900000000001      6.2308300000000001
   146   7                -28.8157     -3.9037000000000002      7.1759700000000004
   147   7     -9.1402900000000002     -4.2507799999999998      6.0327999999999999
   148   2     -9.6911500000000004                -3.86816      4.7498199999999997
   149   4                -10.6206     -3.3260800000000001      4.9427199999999996
   150   4     -9.8502100000000006                -4.71312      4.0782800000000003
   151   2     -25.388500000000001     -12.307600000000001                 11.7578
   152   4                 -24.974     -13.287599999999999                  11.464
   153   4     -24.588999999999999                -11.5517      11.815300000000001
   154   7                -25.8751     -12.420400000000001                 13.1374
   155   2     -27.011099999999999     -11.717700000000001      13.260199999999999
   156   7                -27.4635     -11.306699999999999                 14.2956
   157   7                -27.6191     -11.472200000000001                 12.0251
   158   2     -26.639099999999999     -11.791399999999999                 11.0474
   159   4     -26.527200000000001                 10.6813      10.486800000000001
   160   4                 -27.073      9.0460399999999996                 10.3582
   161   2     -33.631500000000003     -3.3799999999999999      18.464300000000001
   162   4     -33.119700000000002     -4.2074999999999996                 18.9999
   163   4                -33.3917     -3.2522899999999999                 17.3993
   164   7                -33.2408                -2.12087                 19.0305
   165   2                -34.3795                 -1.3488                 19.2805
   166   7     -12.816700000000001    -0.28048200000000001      19.789999999999999
   167   7     -35.491799999999998     -2.0480399999999999      18.914000000000001
   168   2                  -35.18     -3.4242499999999998                 18.5504
   169   4     -35.634900000000002     -3.6792400000000001      17.592099999999999
   170   4     -35.608800000000002     -4.1146500000000001      19.289899999999999
   171   2                -13.1861     -5.7199099999999996                 15.4354
   172   4                -13.9672     -6.4227699999999999                 15.6996
   173   4                -12.5304     -5.3821700000000003      16.233000000000001
   174   7     -13.956899999999999     -4.5258500000000002                 15.0113
   175   2     -13.781000000000001     -4.2407500000000002      13.729200000000001
   176   7                -14.2569     -3.2406999999999999      13.146599999999999
   177   7                -12.9993     -5.1993600000000004      13.073499999999999
   178   2                  -12.48     -6.1862300000000001      14.101699999999999
   179   4     -11.320399999999999     -6.0495599999999996                 14.1869
   180   4     -12.840299999999999     -7.0983099999999997      13.678800000000001
   181   2                -21.2943                -11.7721      5.1268200000000004
   182   4                -20.8874      10.576000000000001      4.4641999999999999
   183   4                -21.6021                -11.2431                 6.04556
   184   7     -20.249600000000001      8.8136200000000002      5.4766300000000001
   185   2     -20.459199999999999     -13.989599999999999      5.0491099999999998
   186   7     -19.668299999999999                -14.9162      5.2183200000000003
   187   7     -21.712199999999999     -14.081799999999999      4.5122200000000001
   188   2     -22.347300000000001     -12.715199999999999      4.4396399999999998
   189   4     -23.413499999999999                -12.7224      4.8013300000000001
   190   4     -22.475100000000001                -12.5511      24.961400000000001
   191   2     -22.646999999999998                -1.37124      18.305299999999999
   192   4                -22.3218                -1.98674      17.450299999999999
   193   4     -21.790400000000002    -0.77735399999999999      18.651299999999999
   194   7                -22.9374                -2.25997      19.390000000000001
   195   2     -24.238399999999999     -2.2270400000000001      19.858699999999999
   196   7     -24.779499999999999     -2.9514399999999998      20.707799999999999
   197   7     -24.963999999999999     -1.2467900000000001      19.140999999999998
   198   2     -24.056699999999999    -0.61539600000000005                 18.1937
   199   4     -24.135899999999999     0.50431899999999996      18.475300000000001
   200   4     -24.470300000000002    -0.66935199999999995      17.150300000000001
   201   2     -21.258099999999999     -4.0204500000000003      22.950099999999999
   202   4     -20.686800000000002                -3.38672      23.696999999999999
   203   4     -20.891999999999999     -3.7965599999999999      21.971299999999999
   204   7                 -22.692     -3.8684599999999998      23.087199999999999
   205   2     -23.224599999999999     -5.0843600000000002      23.254100000000001
   206   7     -24.351099999999999     -5.4443599999999996                 23.3765
   207   7     -22.189399999999999     -6.0861400000000003      1.6938599999999999
   208   2     -20.937200000000001     -5.4221199999999996                 1.89598
   209   4     -20.217400000000001                -5.95357                 1.34155
   210   4     -20.639600000000002     -5.4884000000000004      2.9531999999999998
   211   2     -10.099600000000001     -8.0123099999999994                 19.5685
   212   4     -9.2864100000000001     -8.7089400000000001      19.403500000000001
   213   4                -10.1554     -7.7290000000000001                  20.593
   214   7                -11.3969     -8.5294600000000003      19.123000000000001
   215   2                -12.0944     -7.5063899999999997                 18.4557
   216   7                -13.2225                -7.58589      18.108000000000001
   217   7     -11.263999999999999     -6.4646800000000004     -3.4688400000000001
   218   2     -9.8863800000000008     -6.8038299999999996     -3.0150299999999999
   219   4     -30.930099999999999     -5.9480399999999998     -2.5451700000000002
   220   4     -9.2629800000000007                -7.19062     -3.7982900000000002
   221   2                -22.4846                 13.4597                 13.6023
   222   4     -22.371400000000001      14.296200000000001      14.321400000000001
   223   4     -21.596399999999999                 13.4483      13.000400000000001
   224   7     -23.470700000000001      13.927199999999999                 12.6328
   225   2     -24.170100000000001      12.864100000000001                 12.2479
   226   7     -24.918900000000001      12.845599999999999      11.267200000000001
   227   7                -23.9681      11.795299999999999                 13.0748
   228   2                -23.1309                 12.2148      14.197800000000001
   229   4     -22.433700000000002      11.404500000000001      14.431900000000001
   230   4                -23.8826      12.462300000000001                 14.9665
   231   2     -36.389899999999997      7.5916800000000002      16.612300000000001
   232   4     -35.982599999999998                 8.51661                 17.1175
   233   4     -36.356900000000003      6.7427900000000003      17.264299999999999
   234   7     -35.724200000000003      7.3335999999999997                  15.355
   235   2     -36.595700000000001      7.5556400000000004                   14.32
   236   7     -14.725899999999999      7.4322999999999997                 13.1798
   237   7     -37.890000000000001      7.7622299999999997      14.866099999999999
   238   2     -37.890500000000003      7.7368300000000003      16.330500000000001
   239   4     -38.436100000000003      6.8184199999999997      16.652699999999999
   240   4     -38.381300000000003      8.6617300000000004                 16.5913
   241   2     -34.097099999999998     -7.9586100000000002      5.5008900000000001
   242   4     -34.366100000000003     -7.3862399999999999      6.3689600000000004
   243   4     -34.747199999999999     -7.6449400000000001      4.6629699999999996
   244   7     -34.408000000000001     -9.3122199999999999      5.7630600000000003
   245   2     -33.277700000000003     -9.9078599999999994      6.1877000000000004
   246   7                -33.0837                -11.0566      6.5730199999999996
   247   7     -32.188099999999999     -9.0967099999999999                 6.00542
   248   2     -32.590899999999998     -7.9139900000000001      5.2785700000000002
   249   4     -32.352200000000003     -7.9737299999999998      4.1857800000000003
   250   4     -32.012900000000002     -7.0646300000000002      5.6492399999999998
   251   2     -23.694099999999999     -7.2645499999999998      8.4036100000000005
   252   4     -23.616499999999998     -6.9466000000000001      7.4025999999999996
   253   4     -23.473199999999999     -8.3011400000000002                 8.59117
   254   7     -25.194400000000002                 -7.1029      8.6732999999999993
   255   2     -25.365300000000001     -6.0503600000000004      9.4791799999999995
   256   7     -26.493099999999998     -5.6901099999999998      9.8093800000000009
   257   7                -24.2135     -5.5068599999999996      9.8509399999999996
   258   2     -23.073699999999999     -6.3170000000000002      9.4165899999999993
   259   4     -22.828700000000001     -6.9463600000000003                 10.1915
   260   4     -22.371700000000001     -5.5849599999999997      9.0091699999999992
   261   2     -25.058700000000002                  10.096      17.689900000000002
   262   4     -24.857099999999999      9.3588000000000005      16.952999999999999
   263   4     -26.134699999999999                 10.1122      17.930099999999999
   264   7     -24.865600000000001                 11.3909      17.121099999999998
   265   2     -23.783200000000001                 12.0044      17.749099999999999
   266   7     -23.329799999999999      13.116099999999999      17.554200000000002
   267   7     -23.256399999999999                 11.1839      18.643599999999999
   268   2     -24.062799999999999      9.9868000000000006      18.854500000000002
   269   4     -24.411799999999999                  10.096      19.922799999999999
   270   4                -23.4129      9.0976900000000001                 18.7517
   271   2     -29.098700000000001     -7.9639499999999996      12.508800000000001
   272   4     -28.988900000000001     -7.7621900000000004                 11.4177
   273   4     -29.213000000000001     -9.0289400000000004                 12.5419
   274   7     -30.213899999999999     -7.3234599999999999                 13.1439
   275   2                -29.7895     -6.2627699999999997      13.928000000000001
   276   7                -30.4846     -5.4778200000000004                 14.5298
   277   7     -28.450099999999999                -6.21089                  13.882
   278   2     -27.812000000000001     -7.4093200000000001                 13.2098
   279   4                -27.5061     -8.1542899999999996      13.992100000000001
   280   4     -27.003799999999998     -7.0872200000000003      12.513299999999999
   281   2     -34.725999999999999                  11.012      10.369300000000001
   282   4     -34.817999999999998                 11.5243      9.3708399999999994
   283   4     -34.126100000000001                  11.625      11.101800000000001
   284   7     -34.141599999999997                -11.8156                 10.0146
   285   2     -35.192399999999999                -12.5557      9.4336300000000008
   286   7     -34.990600000000001     -13.536899999999999      8.7489000000000008
   287   7     -36.348999999999997     -12.081300000000001      9.8740000000000006
   288   2     -36.078899999999997                 10.6317                 10.8428
   289   4     -36.151600000000002                 10.1812                 11.8276
   290   4     -36.916800000000002                 11.2646      10.659700000000001
   291   2     -25.778600000000001      6.4233900000000004      4.8321300000000003
   292   4     -26.049900000000001      7.1096899999999996      5.6153899999999997
   293   4     -25.693899999999999      6.9640399999999998      3.9344600000000001
   294   7     -27.012899999999998      5.6301500000000004      4.4738800000000003
   295   2     -26.575600000000001      4.5005300000000004      3.9752900000000002
   296   7     -27.271100000000001      3.5998600000000001      3.4403800000000002
   297   7     -25.171099999999999                 4.34795      4.0814199999999996
   298   2     -24.720600000000001      5.4287299999999998      5.0239099999999999
   299   4                -23.7395      5.9959300000000004      4.9521899999999999
   300   4     -24.799800000000001                 5.00244      6.0112699999999997
   301   2     -25.858899999999998                 11.0749      6.4798900000000001
   302   4                -26.4495                 11.9596      6.4639499999999996
   303   4                -25.1556                 11.1196      5.6772299999999998
   304   7     -26.813300000000002      9.9744399999999995      6.2244999999999999
   305   2     -26.785599999999999      9.1031099999999991      7.2886600000000001
   306   7     -27.400600000000001      8.0511800000000004      7.3090599999999997
   307   7                 -26.081      9.5642200000000006      8.3220200000000002
   308   2     -25.299900000000001                 10.7301      7.8801199999999998
   309   4                -24.2471                 10.4757                 7.87181
   310   4     -25.400099999999998      11.501099999999999      8.6849799999999995
   311   2                -21.3916     -10.978899999999999      9.9074399999999994
   312   4     -22.132000000000001     -10.779500000000001      9.1105499999999999
   313   4     -21.813800000000001     -11.731400000000001                 10.5517
   314   7                -21.4207     -9.7024299999999997                 10.6404
   315   2                -20.1341     -9.1628000000000007                 10.6172
   316   7     -19.888400000000001     -8.1299899999999994                 11.1907
   317   7     -19.310700000000001     -9.8953900000000008      9.8344900000000006
   318   2                -19.9422     -11.140499999999999      9.3919499999999996
   319   4     -19.446000000000002     -12.036300000000001      9.7361000000000004
   320   4                -19.8689                -10.9876      8.2988900000000001
   321   2     -20.104299999999999      3.8368799999999998     -4.5763499999999997
   322   4     -20.922999999999998      4.6271699999999996     -4.6334900000000001
   323   4     -19.186199999999999      4.0955500000000002                -5.09171
   324   7     -42.175899999999999      2.7586599999999999     -5.3794300000000002
   325   2     -41.898800000000001                 1.60938     -4.7716799999999999
   326   7                -42.1387     0.51022699999999999     -5.2225400000000004
   327   7     -41.218600000000002                 1.81664     -3.6059199999999998
   328   2     -41.575200000000002      3.1962799999999998     -3.1727799999999999
   329   4     -40.747799999999998                 3.60046     -2.5506899999999999
   330   4     -42.547899999999998      3.1964399999999999     -2.6880999999999999
   331   2                -24.0579      1.1645799999999999                 14.9146
   332   4     -23.919799999999999      1.7006399999999999      15.839499999999999
   333   4     -25.002300000000002                0.629664                 14.9588
   334   7     -23.025500000000001     0.23252800000000001                  14.666
   335   2                -22.2469     0.71782699999999999                 13.6282
   336   7     -21.190899999999999     0.24468200000000001                 13.2453
   337   7     -22.822299999999998      1.7804500000000001                  12.968
   338   2                -24.0154      2.1655799999999998                 13.6958
   339   4     -24.786300000000001                 2.03268                 12.9794
   340   4     -23.957799999999999      3.2451300000000001                 14.0139
   341   2                -29.5716                 1.85456                  11.654
   342   4     -29.446200000000001      2.8859499999999998                 11.2264
   343   4     -29.473500000000001                 1.13452                 10.8187
   344   7     -30.935099999999998      1.7822899999999999                  12.222
   345   2                 -30.846                 1.39517                 13.5589
   346   7     -31.858699999999999      1.2668900000000001      14.289099999999999
   347   7     -29.586400000000001                 1.23149                 13.9755
   348   2                -28.6829      1.6027100000000001                 12.8842
   349   4     -27.936699999999998     0.72930700000000004                 12.7476
   350   4     -28.043399999999998      2.4718100000000001                 13.0886
   351   2     -23.501200000000001     -9.3334399999999995     0.54224799999999995
   352   4     -22.870799999999999     -8.4385300000000001     0.25533600000000001
   353   4                -23.8703     -9.9708699999999997    -0.26284600000000002
   354   7                -24.5318     -8.7517600000000009      1.4141999999999999
   355   2     -24.596399999999999     -9.3578200000000002      2.6545999999999998
   356   7     -25.397200000000002     -9.1434099999999994      3.5395500000000002
   357   7     -23.502500000000001                -10.1678      2.8097500000000002
   358   2     -22.761700000000001     -10.250999999999999                 1.53721
   359   4     -22.649799999999999     -11.289999999999999      1.3334999999999999