(written by ASE)

888 atoms
9 atom types

0.0      21.553999999999998  xlo xhi
0.0      21.553999999999998  ylo yhi
0.0                  21.544  zlo zhi

Atoms # atomic

     1   2     -33.394300000000001     -13.122299999999999      19.525700000000001
     2   4                -33.2485                -13.3413      18.479600000000001
     3   4     -34.493400000000001                -12.8705      19.603899999999999
     4   7     -32.639099999999999     -11.928000000000001      19.876000000000001
     5   2                -31.4968                -12.2752      20.483899999999998
     6   7     -30.552199999999999     -11.564299999999999      20.741599999999998
     7   7     -31.473800000000001                -13.5877      20.789999999999999
     8   2     -32.851300000000002                -14.0997                 20.5702
     9   4                -33.3279                -13.9392                 21.5532
    10   4     -32.827599999999997     -15.081799999999999                  20.238
    11   2     -26.467199999999998     -6.2329299999999996      7.1154999999999999
    12   4                -25.5246     -6.6323600000000003      7.5880200000000002
    13   4     -26.864899999999999      16.150400000000001      7.6585200000000002
    14   7                -27.5183     -7.2124199999999998      7.0129799999999998
    15   2     -27.962700000000002     -7.2840999999999996      5.7419900000000004
    16   7     -28.788699999999999     -8.0576699999999999      5.3825900000000004
    17   7     -27.323899999999998     -6.4410600000000002      4.8797499999999996
    18   2     -26.303999999999998     -5.7259700000000002      5.6767500000000002
    19   4     -26.412800000000001     -4.6590600000000002      5.5208899999999996
    20   4     -25.343299999999999     -6.0246899999999997      5.1516599999999997
    21   2     -27.993400000000001     -2.6128300000000002      3.6141000000000001
    22   4                -28.0214     -3.3118699999999999      4.4504400000000004
    23   4     -27.005099999999999     -2.7207599999999998      3.1083099999999999
    24   7     -28.169699999999999                -1.31579      4.1541499999999996
    25   2     -29.168199999999999    -0.67489600000000005                 3.49682
    26   7     -29.576499999999999     0.42830499999999999                 3.75915
    27   7                -29.6112     -1.4177999999999999      2.4480499999999998
    28   2     -29.201499999999999                -2.82972                 2.65801
    29   4     -28.877400000000002     -3.2462900000000001      1.6735500000000001
    30   4     -30.067699999999999     -3.2768099999999998                 3.13388
    31   2                -15.8314      2.3824299999999998                -2.69232
    32   4                -16.2348      1.4843999999999999                -2.30545
    33   4     -16.210599999999999                 3.26376     -2.2485200000000001
    34   7     -16.282800000000002                  2.3304     -4.0897899999999998
    35   2     -15.342599999999999      1.7394499999999999     -4.8568199999999999
    36   7                -15.5273      1.4491499999999999     -6.0341100000000001
    37   7     -14.140000000000001      1.6950400000000001     -4.1643699999999999
    38   2                -14.3103      2.2900100000000001     -2.8416800000000002
    39   4                -13.8813      3.2907899999999999     -2.8897400000000002
    40   4     -13.840999999999999                 1.53918     -2.2176800000000001
    41   2     -22.273299999999999                -7.35243      17.961500000000001
    42   4                -21.3233     -7.1862700000000004      17.566500000000001
    43   4     -22.296399999999998     -8.3931100000000001                 18.2437
    44   7     -23.319299999999998     -7.1542300000000001      16.930700000000002
    45   2                -24.4099     -6.5835999999999997      17.592300000000002
    46   7     -25.480599999999999     -6.4774900000000004                 17.0931
    47   7     -24.025099999999998     -6.1160800000000002      18.852799999999998
    48   2                -22.6053     -6.3672500000000003      19.088200000000001
    49   4                -22.5669     -6.8778300000000003      19.998699999999999
    50   4     -22.178000000000001     -5.3855399999999998      19.160799999999998
    51   2     -16.146899999999999      11.828900000000001                 13.5686
    52   4     -15.718299999999999      12.652799999999999                 12.9903
    53   4                -15.9344      11.994199999999999                 14.6655
    54   7                -15.5167     -10.929600000000001      13.034700000000001
    55   2                -16.5898                -11.9072                 12.8559
    56   7     -16.336200000000002     -13.035600000000001                 12.4558
    57   7                -17.8306                 10.2156                 13.0397
    58   2     -17.725999999999999                 11.6746                 13.1358
    59   4                -18.4496      12.020799999999999                 13.9079
    60   4                -18.0139                 12.1753                 12.2049
    61   2                -18.6433                -1.65096                  17.555
    62   4                -18.6721    -0.61449500000000001      17.241399999999999
    63   4     -17.896799999999999     -2.0861900000000002                 16.9511
    64   7     -20.050999999999998                 -2.1919      17.560600000000001
    65   2                -20.5032                -2.38063      18.884799999999998
    66   7                -21.6113                -2.86178      19.127700000000001
    67   7                -19.5184     -2.1200899999999998      19.765599999999999
    68   2     -18.273800000000001                -1.85704      18.980699999999999
    69   4     -17.654599999999999     -2.7795700000000001      19.073399999999999
    70   4                -17.7743    -0.93916200000000005      19.439399999999999
    71   2                -28.8261      6.0759999999999996    -0.57969999999999999
    72   4     -28.177600000000002      5.5984600000000002                0.212225
    73   4     -29.686599999999999      6.5443899999999999    -0.10137500000000001
    74   7     -29.435099999999998      5.1414799999999996     -1.5445599999999999
    75   2     -29.435700000000001     -15.855499999999999     -2.7904900000000001
    76   7                -30.1526     -16.316400000000002     -3.7006899999999998
    77   7     -28.637699999999999      6.7614299999999998                -2.79447
    78   2                -28.0397      7.0154500000000004     -1.5063599999999999
    79   4     -28.095600000000001      8.0396800000000006    -0.99282000000000004
    80   4     -27.006499999999999      6.6991100000000001                -1.56708
    81   2                -29.0793     -12.230399999999999      8.3225899999999999
    82   4     -28.235299999999999     -12.863200000000001      8.0155200000000004
    83   4                 -29.837                -12.1127      7.5062800000000003
    84   7     -28.520600000000002                -10.7723      8.4134100000000007
    85   2     -28.779499999999999     -10.341200000000001      9.6639999999999997
    86   7     -28.677299999999999     -9.1950299999999991                 10.0585
    87   7     -29.604099999999999                -11.2196      10.324199999999999
    88   2     -29.689800000000002                -12.5176      9.6523000000000003
    89   4     -30.716999999999999                -12.8714      9.4739599999999999
    90   4     -29.090399999999999                -13.0929                 10.2889
    91   2     -18.503900000000002     -9.0557700000000008      23.097300000000001
    92   4     -18.702400000000001     -9.8117800000000006      22.326499999999999
    93   4     -18.375299999999999     -9.5523399999999992      24.081600000000002
    94   7     -19.781400000000001     -8.2379499999999997      23.034400000000002
    95   2     -19.562200000000001     -7.1557399999999998      22.303799999999999
    96   7     -20.462800000000001     -6.4529899999999998      21.896799999999999
    97   7     -18.216799999999999                -6.95974                 22.0152
    98   2     -17.463699999999999     -8.0480800000000006                 22.6572
    99   4     -17.007300000000001     -7.5712900000000003                 23.5213
   100   4     -16.708200000000001     -8.4265399999999993      21.953299999999999
   101   2     -19.845600000000001     -4.1672900000000004      9.1528799999999997
   102   4     -19.558800000000002     -3.7597100000000001                 10.1332
   103   4                -20.1098     -5.2410199999999998      8.9648199999999996
   104   7     -18.805900000000001     -3.9533499999999999      8.1641600000000007
   105   2     -18.765699999999999     -2.6487099999999999                 7.82972
   106   7     -17.838100000000001     -2.0979299999999999      7.2772500000000004
   107   7     -19.952500000000001     -2.1061200000000002      8.2459100000000003
   108   2     -20.838100000000001     -3.2142400000000002      8.5693099999999998
   109   4     -21.322700000000001     -3.6483400000000001      7.7173400000000001
   110   4     -21.589600000000001                -2.74411      9.2988300000000006
   111   2     -24.190200000000001      6.7248999999999999     -5.5712400000000004
   112   4     -23.809699999999999                 6.51708      14.974600000000001
   113   4     -24.472799999999999      7.8000299999999996     -5.6593499999999999
   114   7     -23.124500000000001      6.6207000000000003     -4.5460900000000004
   115   2     -23.691400000000002      6.2350599999999998     -3.3624299999999998
   116   7     -23.177800000000001      6.3119100000000001     -2.2219899999999999
   117   7     -24.894400000000001      5.7016999999999998     -3.6233399999999998
   118   2     -25.198699999999999      5.6763700000000004     -5.0217299999999998
   119   4     -26.250499999999999      5.8323299999999998                -5.26511
   120   4                -24.9495      4.7053099999999999      16.080400000000001
   121   2     -37.444899999999997                -12.2972                  23.584
   122   4     -38.456200000000003                 -12.372                 23.1968
   123   4     -37.539900000000003                -12.4497      24.640000000000001
   124   7     -36.901400000000002     -10.959199999999999                 23.3185
   125   2     -36.392299999999999                 -10.971      22.105399999999999
   126   7     -36.212600000000002     -9.9579599999999999                 21.4468
   127   7     -36.153700000000001                -12.2652      21.708400000000001
   128   2     -36.460299999999997                -13.2035                 22.8657
   129   4     -35.520899999999997                -13.3703      23.490500000000001
   130   4     -36.915799999999997                -14.1257      22.546800000000001
   131   2     -16.942499999999999     -7.4518800000000001      19.065100000000001
   132   4     -16.720099999999999     -7.8863799999999999      19.991199999999999
   133   4                 -16.919     -6.3638500000000002      19.253599999999999
   134   7     -18.282399999999999                -7.81196      18.642800000000001
   135   2                -18.2164     -8.4437499999999996      17.431699999999999
   136   7     -19.180299999999999     -8.9509299999999996      16.888200000000001
   137   7     -17.011299999999999                -8.48705      16.909199999999998
   138   2                -16.0153     -7.9909699999999999                 17.9373
   139   4     -15.449199999999999     -7.1428799999999999      17.411200000000001
   140   4                -15.3695     -8.8600600000000007      18.107199999999999
   141   2                -10.3299     -4.5852899999999996      5.5465999999999998
   142   4     -10.664199999999999     -4.4156899999999997      4.5743099999999997
   143   4     -32.727200000000003     -4.5236700000000001      6.2560500000000001
   144   7     -30.897500000000001     -3.5644100000000001      5.9615400000000003
   145   2     -29.932099999999998     -4.1640199999999998      6.6523199999999996
   146   7     -29.104900000000001     -3.5714800000000002      7.2484400000000004
   147   7     -8.4016400000000004     -5.5545999999999998      6.5386600000000001
   148   2     -9.4174500000000005     -5.8771800000000001      5.4824799999999998
   149   4     -9.9430499999999995     -6.8255400000000002      5.7838399999999996
   150   4     -8.9692600000000002     -6.0113300000000001      4.4896500000000001
   151   2     -25.976500000000001     -13.757999999999999                 11.1995
   152   4                -26.4054     -12.736599999999999                 11.2864
   153   4     -26.168099999999999                -14.1112                   10.17
   154   7     -26.685099999999998     -14.512499999999999                 12.1889
   155   2     -25.838699999999999     -15.203799999999999      12.963200000000001
   156   7                -26.1677     -15.932499999999999      13.837899999999999
   157   7     -24.542300000000001                -15.0299      12.621700000000001
   158   2                -24.4071                -13.9107                 11.6121
   159   4     -23.767199999999999      7.4249700000000001      10.817299999999999
   160   4     -24.075099999999999      8.5276800000000001      12.226699999999999
   161   2     -35.604999999999997     -4.0137700000000001                 18.8187
   162   4     -35.744999999999997     -4.7463699999999998      18.069299999999998
   163   4     -35.661499999999997     -4.5920500000000004      19.744499999999999
   164   7     -36.668999999999997     -3.0340699999999998                 18.7179
   165   2     -36.154699999999998                 -1.7702                 18.6678
   166   7     -15.244300000000001    -0.83920799999999995      18.434100000000001
   167   7     -34.790100000000002     -1.7611300000000001      18.795000000000002
   168   2                -34.3399     -3.2254100000000001      18.739100000000001
   169   4     -33.599600000000002     -3.3242600000000002                 19.5108
   170   4     -33.877000000000002     -3.3540399999999999      17.750699999999998
   171   2                -13.1493     -6.8742700000000001      13.625400000000001
   172   4     -12.638999999999999     -7.7674899999999996                 14.0334
   173   4     -13.434799999999999     -7.1635499999999999      12.619300000000001
   174   7     -12.216100000000001     -5.7337999999999996                 13.5647
   175   2                 -12.298     -5.1238400000000004                 14.7378
   176   7                -11.4941     -4.3020300000000002                 15.1279
   177   7                -13.4633     -5.5278600000000004                  15.403
   178   2                -14.2715     -6.3244699999999998                 14.5525
   179   4     -14.977499999999999     -5.6831399999999999      14.020799999999999
   180   4     -14.798299999999999                -7.15578                 15.0753
   181   2                -22.1721     -11.541700000000001                 5.26736
   182   4                -22.5505                 10.9994      5.3194600000000003
   183   4     -21.900300000000001                -12.0304                 6.21516
   184   7     -20.874400000000001                 10.1045                 4.57477
   185   2     -21.083400000000001                -11.5608      3.2534399999999999
   186   7                -20.3187                -11.1815      2.3750499999999999
   187   7     -22.370699999999999     -11.917899999999999      3.0616400000000001
   188   2     -22.964600000000001                -12.4017                 4.34579
   189   4     -22.752700000000001     -13.445499999999999      4.2850200000000003
   190   4                -24.0336     -12.227499999999999      25.882899999999999
   191   2     -25.442299999999999                -1.02556      19.224900000000002
   192   4     -24.745999999999999    -0.57280500000000001      19.947299999999998
   193   4                -25.9283    -0.24740799999999999      18.572600000000001
   194   7     -26.476400000000002                -1.67964                  20.023
   195   2     -26.700199999999999                -2.88395      19.594899999999999
   196   7                 -27.596     -3.6237599999999999                 19.9434
   197   7     -25.806999999999999     -3.2450399999999999      18.604900000000001
   198   2     -24.879000000000001     -2.0971899999999999                 18.4055
   199   4     -24.819400000000002     -1.8496999999999999                 17.3535
   200   4     -23.977900000000002     -2.5323099999999998      18.798100000000002
   201   2     -23.777999999999999     -2.7396199999999999      22.170300000000001
   202   4     -23.919799999999999     -2.1378599999999999                 23.0747
   203   4     -23.638200000000001     -2.0792600000000001      21.299099999999999
   204   7                -24.8443     -3.7239200000000001      21.962599999999998
   205   2                -24.2303     -4.9600499999999998      21.827400000000001
   206   7     -24.984200000000001     -5.8526699999999998      21.401900000000001
   207   7     -22.969999999999999     -5.0176800000000004                0.628606
   208   2                -22.4876     -3.5453700000000001     0.76701399999999997
   209   4                -21.8003     -3.3302700000000001   -0.070344400000000001
   210   4                -22.0578     -3.5184299999999999      1.8035399999999999
   211   2     -11.269600000000001     -8.5935100000000002                 19.7562
   212   4     -11.816599999999999     -9.3965399999999999      19.255400000000002
   213   4                -10.3581     -8.9327000000000005      20.272300000000001
   214   7                -12.2774     -8.1677900000000001      20.741499999999998
   215   2                -13.0474     -7.2154699999999998                 20.2014
   216   7     -14.068199999999999     -6.7646499999999996      20.689499999999999
   217   7                -12.5335     -6.8682499999999997     -2.5370400000000002
   218   2     -11.178800000000001     -7.4092000000000002     -2.7188500000000002
   219   4     -32.075499999999998     -6.6254200000000001     -2.3205399999999998
   220   4                -11.0556     -7.5990000000000002     -3.8252999999999999
   221   2     -23.070799999999998                 12.2094                 13.9788
   222   4     -22.712399999999999                 12.7278      13.118600000000001
   223   4                 -23.465                  12.971      14.638299999999999
   224   7                -21.9754      11.538500000000001      14.678699999999999
   225   2     -22.202300000000001                 10.1775                 14.5334
   226   7                -21.4176      9.3577600000000007                 14.9092
   227   7     -23.441299999999998      9.8384300000000007                 14.0115
   228   2     -24.130600000000001      11.076700000000001      13.667199999999999
   229   4     -25.008199999999999      11.141400000000001      14.314299999999999
   230   4     -24.491599999999998                 11.1069                 12.6617
   231   2                -37.1235      7.9964700000000004      17.444900000000001
   232   4     -36.599899999999998      8.8100100000000001      18.013300000000001
   233   4     -37.643799999999999      7.4197199999999999                 18.2332
   234   7     -36.112699999999997      7.1237599999999999      16.843699999999998
   235   2     -36.261499999999998      7.1141500000000004                 15.4375
   236   7     -13.931800000000001      6.6262699999999999      14.670999999999999
   237   7     -37.328899999999997      7.8826499999999999                 15.0755
   238   2     -37.923400000000001                 8.53111      16.269500000000001
   239   4     -38.990099999999998      8.3953699999999998                 16.3202
   240   4     -37.815600000000003      9.6611999999999991      16.228999999999999
   241   2     -34.195399999999999     -9.5217399999999994                 8.73902
   242   4     -35.119999999999997     -8.9161599999999996      8.5118299999999998
   243   4     -34.240000000000002                -10.0146      9.6960999999999995
   244   7     -33.128300000000003     -8.6639599999999994      8.7569999999999997
   245   2     -32.087699999999998     -9.1095400000000009      7.9487699999999997
   246   7                -31.0153     -8.5240500000000008      7.8241100000000001
   247   7     -32.418599999999998                -10.2483      7.3310700000000004
   248   2     -33.837899999999998     -10.602499999999999      7.5672899999999998
   249   4     -33.785699999999999     -11.661899999999999      7.8205299999999998
   250   4     -34.371400000000001     -10.457100000000001      6.5980400000000001
   251   2     -24.216699999999999     -5.7995400000000004      10.404500000000001
   252   4                 -23.459     -5.0625200000000001                 10.8764
   253   4     -23.937000000000001     -5.9818600000000002      9.4615500000000008
   254   7                -25.5169     -5.2411000000000003                 10.3338
   255   2     -26.490400000000001     -6.2443299999999997                 10.6112
   256   7     -27.667400000000001     -6.0763499999999997                 10.4505
   257   7     -25.832999999999998     -7.3822999999999999      11.015700000000001
   258   2     -24.397500000000001     -7.0338099999999999                  11.291
   259   4     -23.733499999999999     -7.9582699999999997                 11.1073
   260   4     -24.418099999999999     -6.9038899999999996                  12.407
   261   2     -25.414000000000001      9.3988300000000002      19.313800000000001
   262   4     -25.015000000000001      8.3439200000000007      19.381699999999999
   263   4                -26.3949      9.4421900000000001                 19.7104
   264   7     -25.424299999999999      9.6714000000000002      17.880400000000002
   265   2                -24.8871      10.876200000000001      17.719000000000001
   266   7     -25.073499999999999                 11.5159      16.694299999999998
   267   7     -23.906199999999998      11.048400000000001      18.633400000000002
   268   2     -24.377300000000002                 10.4993      19.821300000000001
   269   4     -24.778600000000001                 11.2561      20.521799999999999
   270   4     -23.635200000000001      9.9693699999999996      20.392399999999999
   271   2     -30.456399999999999     -7.6345999999999998      12.708500000000001
   272   4                 -30.625     -6.8548099999999996                 11.9337
   273   4     -30.927600000000002     -8.5591000000000008                 12.3726
   274   7                -31.0779     -7.2484799999999998      14.033099999999999
   275   2                -30.0914     -7.2038000000000002      14.885899999999999
   276   7     -30.136299999999999                -6.91981      16.075099999999999
   277   7     -28.842600000000001     -7.6225800000000001      14.413399999999999
   278   2     -28.938199999999998     -7.6754699999999998                 12.9817
   279   4     -28.363299999999999     -8.5286000000000008                 12.4329
   280   4     -28.448499999999999     -6.8098900000000002                 12.6172
   281   2     -33.501800000000003      9.6208399999999994      12.163399999999999
   282   4     -33.832999999999998      10.487500000000001                 12.7829
   283   4     -32.474800000000002      9.2880299999999991                 12.5844
   284   7     -33.115900000000003     -11.782400000000001                 10.7113
   285   2                -33.4161     -13.037699999999999                 10.1136
   286   7     -33.112299999999998     -13.417299999999999      9.0213099999999997
   287   7     -34.046500000000002     -13.879300000000001      11.042199999999999
   288   2                -34.5747      8.6196199999999994                 12.1022
   289   4     -34.781100000000002      8.0873500000000007                 13.0085
   290   4     -35.532600000000002      9.0613399999999995      11.715199999999999
   291   2                -26.2441      6.2761100000000001                 5.62418
   292   4     -26.491199999999999      6.1232600000000001      6.6852999999999998
   293   4                 -26.087      7.3122499999999997                 5.46286
   294   7     -27.298300000000001      5.7584499999999998      4.7452199999999998
   295   2     -26.909400000000002      4.6850100000000001      4.0072700000000001
   296   7     -27.663799999999998      4.0568400000000002      3.3079900000000002
   297   7     -25.543199999999999      4.5414700000000003      4.1755300000000002
   298   2     -25.002800000000001      5.4206300000000001      5.2069900000000002
   299   4     -24.256599999999999      6.0940300000000001      4.7016099999999996
   300   4     -24.478100000000001      4.8017399999999997      5.9606300000000001
   301   2     -25.260100000000001      11.705399999999999      7.3683500000000004
   302   4     -26.189900000000002                 12.2012      7.0625999999999998
   303   4     -24.420500000000001      12.174799999999999      6.8454800000000002
   304   7     -25.488900000000001                 10.2852      7.0066600000000001
   305   2     -25.147099999999998      9.4854000000000003      8.0978100000000008
   306   7     -25.255700000000001      8.2924900000000008      8.1015899999999998
   307   7                -24.7119                 10.2361      9.1654199999999992
   308   2                -25.1569      11.656000000000001      8.9208099999999995
   309   4     -24.402699999999999                 12.2615      9.3593499999999992
   310   4     -26.103200000000001      11.693199999999999      9.4494100000000003
   311   2     -20.799700000000001     -10.537100000000001      8.4839400000000005
   312   4                 -20.477     -10.683299999999999      7.4546099999999997
   313   4     -21.562000000000001     -11.283300000000001      8.7108299999999996
   314   7                -21.4815     -9.1818600000000004      8.6778600000000008
   315   2     -21.174499999999998     -8.7392199999999995      9.9541799999999991
   316   7     -21.627600000000001     -7.6962299999999999      10.487299999999999
   317   7                -20.2822     -9.5653799999999993                 10.5448
   318   2     -19.716799999999999     -10.406000000000001      9.4799799999999994
   319   4     -19.418600000000001     -11.376300000000001      10.011799999999999
   320   4     -18.732199999999999     -9.9768899999999991      9.1854600000000008
   321   2     -19.747199999999999      5.0179999999999998     -4.3242599999999998
   322   4     -20.378799999999998      5.5802399999999999     -5.0442999999999998
   323   4     -19.049900000000001      5.7635699999999996                -3.90646
   324   7     -40.651499999999999      3.9405600000000001     -5.0669399999999998
   325   2                -40.9831      2.7025800000000002     -4.6446500000000004
   326   7     -40.566499999999998                 1.66235     -5.1243600000000002
   327   7     -41.745600000000003      2.8067500000000001     -3.5478299999999998
   328   2     -42.040599999999998      4.1538300000000001                -3.23366
   329   4     -41.510599999999997      4.3101000000000003                -2.33873
   330   4     -43.118400000000001      4.2401600000000004     -3.2581199999999999
   331   2     -23.920100000000001                 2.62887      14.212199999999999
   332   4     -24.565799999999999      1.6368100000000001                  14.151
   333   4     -24.372900000000001      3.5276299999999998                 13.9024
   334   7                -22.7501      2.3301400000000001                 13.3332
   335   2     -21.749099999999999                  1.8147      14.143000000000001
   336   7     -20.741399999999999                 1.32599                 13.6509
   337   7     -21.947299999999998      2.0654699999999999      15.446199999999999
   338   2                 -23.218                 2.82918                 15.5967
   339   4     -23.040299999999998      3.8251300000000001      15.928699999999999
   340   4     -23.707000000000001      2.3424900000000002      16.479600000000001
   341   2     -29.853400000000001                 1.52728                 11.3687
   342   4                -29.8935      2.2086199999999998      10.489800000000001
   343   4     -29.277699999999999     0.67676099999999995      11.095499999999999
   344   7                -31.2211      1.0654699999999999      11.619999999999999
   345   2     -31.637799999999999      1.4379500000000001                 12.8346
   346   7     -32.785600000000002                 1.18828                 13.3063
   347   7                -30.7149                 2.21739      13.469799999999999
   348   2     -29.479099999999999      2.2879399999999999      12.662800000000001
   349   4                -28.7151      1.7758100000000001      13.283200000000001
   350   4     -29.165700000000001      3.3664900000000002      12.505599999999999
   351   2     -23.977399999999999     -8.9857899999999997                 1.31745
   352   4     -24.322399999999998     -8.4875500000000006     0.38716099999999998
   353   4     -23.494700000000002     -9.8960100000000004                 1.04477
   354   7     -25.248999999999999     -9.2362400000000004      2.0258600000000002
   355   2     -25.156500000000001     -8.9012899999999995      3.3111999999999999
   356   7                -26.0334     -9.0484899999999993      4.1384699999999999
   357   7     -24.007999999999999     -8.2912599999999994                 3.58466
   358   2     -23.126200000000001     -8.2265700000000006      2.4012699999999998
   359   4     -22.116499999999998     -8.6377900000000007      2.5591599999999999