(written by ASE)

888 atoms
9 atom types

0.0      21.553999999999998  xlo xhi
0.0      21.553999999999998  ylo yhi
0.0                  21.544  zlo zhi

Atoms # atomic

     1   2     -32.953800000000001                -12.8506      20.152699999999999
     2   4     -34.002099999999999                -12.8019      20.572299999999998
     3   4     -32.243299999999998                -12.8407                 21.0457
     4   7     -32.639899999999997                -11.6403      19.347799999999999
     5   2     -32.424900000000001     -11.946199999999999      18.052800000000001
     6   7     -32.143500000000003                 -11.183      17.183700000000002
     7   7     -32.500799999999998                -13.2835      17.884799999999998
     8   2                 -32.762     -13.985799999999999      19.190100000000001
     9   4     -31.908200000000001                -14.5739      19.426300000000001
    10   4     -33.606499999999997     -14.635199999999999      19.015799999999999
    11   2     -26.242799999999999     -7.0317299999999996      5.9009099999999997
    12   4     -25.644300000000001     -7.7028100000000004      6.5179799999999997
    13   4     -26.045999999999999                 15.5656      6.1735899999999999
    14   7     -27.649000000000001     -7.3103199999999999                 6.34049
    15   2     -28.484200000000001     -7.3222100000000001      5.2249100000000004
    16   7     -29.700199999999999     -7.5151199999999996      5.2788300000000001
    17   7     -27.766200000000001     -6.9427700000000003      4.1390099999999999
    18   2                -26.3017     -7.2134499999999999      4.3891999999999998
    19   4                -25.8338     -6.4602000000000004      3.7021299999999999
    20   4     -25.949100000000001     -8.1929999999999996      4.0818899999999996
    21   2     -28.542300000000001     -3.1512899999999999      3.2245599999999999
    22   4     -29.073599999999999     -3.7578800000000001      2.5044599999999999
    23   4                -28.4985     -3.5160300000000002                  4.2538
    24   7     -29.241299999999999                -1.87774      3.3456000000000001
    25   2     -28.311699999999998    -0.94135899999999995      3.6850900000000002
    26   7                 -28.555     0.12739300000000001      4.1755599999999999
    27   7     -27.056699999999999     -1.3546199999999999      3.4665599999999999
    28   2     -27.153500000000001                -2.66513      2.7970999999999999
    29   4     -26.330300000000001     -3.3286500000000001      3.1694900000000001
    30   4     -27.067499999999999     -2.5935600000000001      1.6942200000000001
    31   2     -14.565899999999999      2.2357300000000002                -1.85762
    32   4     -13.617900000000001                 2.20716                -1.38104
    33   4                -15.4054      1.5933200000000001                -1.40669
    34   7                -14.4023      1.8851899999999999     -3.2264200000000001
    35   2     -14.829800000000001      2.8719899999999998     -4.0492900000000001
    36   7                -14.7531      2.7972700000000001                -5.22628
    37   7                -15.3508      3.9035299999999999                -3.36524
    38   2                -14.9869      3.7370199999999998                -1.93591
    39   4                -15.7761      4.1003699999999998     -1.3702799999999999
    40   4                -14.1059      4.3761400000000004     -1.6448199999999999
    41   2     -21.287099999999999     -7.0022000000000002      18.702300000000001
    42   4     -21.057500000000001     -7.3804699999999999      17.755299999999998
    43   4                -20.7622     -7.5310499999999996      19.531700000000001
    44   7     -22.683800000000002     -7.0465999999999998      18.967500000000001
    45   2     -23.217199999999998     -5.8601400000000003                 19.2529
    46   7                -24.3874     -5.7324099999999998      19.513200000000001
    47   7     -22.321300000000001     -4.8936099999999998                 19.1433
    48   2     -20.969999999999999     -5.4038700000000004      18.709900000000001
    49   4     -20.233499999999999     -5.1116999999999999      19.366299999999999
    50   4                -20.7286     -4.9984700000000002                 17.6663
    51   2     -18.083500000000001                 11.0145                 14.3683
    52   4     -17.428100000000001      11.759600000000001      14.982799999999999
    53   4     -19.160499999999999      11.231400000000001                 14.5032
    54   7     -17.671900000000001                -11.8329                 14.8811
    55   2     -17.477599999999999                -12.7342                 13.8612
    56   7     -17.165500000000002                -13.9194      13.915100000000001
    57   7                -17.6541      9.4969099999999997      12.678100000000001
    58   2     -17.560500000000001                 10.9255                 12.8916
    59   4     -18.166899999999998      11.498200000000001                 12.1965
    60   4     -16.531199999999998      11.200900000000001      12.707100000000001
    61   2     -20.005700000000001     -1.9357200000000001      17.759399999999999
    62   4     -20.384899999999998     -1.0022599999999999      17.338200000000001
    63   4                -20.1981     -2.7849699999999999      17.125599999999999
    64   7     -20.482600000000001     -2.2383500000000001                 19.1601
    65   2                -19.4833     -2.6787899999999998      20.009899999999998
    66   7                -19.6739     -3.1635200000000001      21.109000000000002
    67   7                -18.3309     -2.4496600000000002      19.379999999999999
    68   2                -18.5078                -1.75356      18.100300000000001
    69   4     -17.941099999999999     -2.3698999999999999      17.313700000000001
    70   4                -18.1951               -0.756324      18.309799999999999
    71   2     -27.141500000000001                 5.72654     -1.4331499999999999
    72   4     -26.387699999999999      5.5593899999999996    -0.70274000000000003
    73   4     -27.072800000000001      5.2112600000000002     -2.4543400000000002
    74   7     -27.285299999999999      7.1785500000000004     -1.7393700000000001
    75   2     -28.647300000000001     -14.176399999999999     -2.0183399999999998
    76   7     -29.076699999999999                -13.2356                -2.54094
    77   7     -29.414200000000001      6.3392099999999996     -1.6051200000000001
    78   2     -28.609100000000002      5.4150400000000003    -0.79790499999999998
    79   4     -28.985099999999999      4.3731799999999996                -1.00508
    80   4     -28.583300000000001      5.6386099999999999     0.25886300000000001
    81   2     -29.828499999999998     -12.228300000000001      8.6719600000000003
    82   4                -30.8047                -12.5349      8.9753399999999992
    83   4     -29.165700000000001                -13.1465      8.8340999999999994
    84   7     -29.427900000000001     -11.049899999999999      9.3845899999999993
    85   2                -28.8308                -10.2211      8.5119100000000003
    86   7     -28.418700000000001     -9.0858699999999999      8.8054600000000001
    87   7     -28.737500000000001                 -10.759      7.2838599999999998
    88   2     -29.612500000000001                -11.9533      7.2130099999999997
    89   4     -29.253499999999999     -12.825100000000001      6.6533100000000003
    90   4     -30.453199999999999     -11.483599999999999      6.6739899999999999
    91   2                -17.0472     -8.4804499999999994      23.233699999999999
    92   4                -17.0214     -9.5983000000000001      23.032399999999999
    93   4                -16.4147     -8.3354800000000004      24.110900000000001
    94   7                -18.3935     -8.1144200000000009      23.641300000000001
    95   2                -19.0379     -7.5011700000000001                 22.5288
    96   7     -20.196000000000002     -7.1480699999999997                 22.5992
    97   7     -18.182500000000001     -7.3202400000000001      21.508800000000001
    98   2                -16.7898     -7.5915600000000003                  21.971
    99   4     -16.341100000000001     -6.6338299999999997      22.269300000000001
   100   4     -16.196999999999999     -8.1916799999999999      21.285699999999999
   101   2     -20.558599999999998     -4.7061400000000004      8.0274900000000002
   102   4     -19.847100000000001     -5.3367199999999997      8.5874100000000002
   103   4                -21.3339     -5.2569999999999997      7.5486300000000002
   104   7     -19.768799999999999     -3.9321999999999999      7.1588799999999999
   105   2     -19.525600000000001     -2.6909900000000002      7.7497400000000001
   106   7                -18.8308     -1.7761199999999999      7.3569500000000003
   107   7     -20.336099999999998     -2.5129700000000001      8.7613400000000006
   108   2     -21.155799999999999                -3.68818      8.9176500000000001
   109   4                -22.1966     -3.3224300000000002      8.7505799999999994
   110   4     -21.092600000000001     -4.0386899999999999      9.9147800000000004
   111   2     -26.224499999999999      5.7465000000000002                 -5.8895
   112   4                -27.1617      6.1757799999999996      15.363200000000001
   113   4     -26.416799999999999      4.6520000000000001     -5.4818499999999997
   114   7     -25.459199999999999      6.4673299999999996                -4.82158
   115   2     -24.150400000000001      6.6439199999999996                -5.14358
   116   7                -23.2973      7.2043799999999996                -4.51797
   117   7     -23.967300000000002      6.2525500000000003     -6.4588099999999997
   118   2     -25.157800000000002      5.6066900000000004     -7.0104199999999999
   119   4     -24.891300000000001      4.5278900000000002     -7.1159999999999997
   120   4                -25.3904      6.1473699999999996      13.595599999999999
   121   2     -37.741500000000002                -13.2279      21.975000000000001
   122   4     -38.339199999999998                -12.3787      21.649799999999999
   123   4     -37.482500000000002     -12.836399999999999      22.975200000000001
   124   7                -36.5764                -13.2582      21.159199999999998
   125   2     -36.802900000000001     -14.177300000000001      20.188600000000001
   126   7     -36.158299999999997     -14.196300000000001      19.153600000000001
   127   7     -37.871299999999998                -14.9369                 20.4468
   128   2     -38.364899999999999                -14.5848      21.855799999999999
   129   4     -37.808399999999999     -15.407299999999999      22.317900000000002
   130   4     -39.458199999999998     -14.749599999999999      21.795999999999999
   131   2     -15.297800000000001     -9.5702700000000007      17.563600000000001
   132   4                -14.5449     -8.7262900000000005      17.693300000000001
   133   4     -15.017300000000001     -10.093400000000001                 16.6432
   134   7                -16.6326     -9.1140799999999995      17.371200000000002
   135   2     -17.524000000000001     -9.6189900000000002      18.285699999999999
   136   7     -18.706399999999999     -9.4072200000000006      18.414400000000001
   137   7     -16.877199999999998     -10.556699999999999      19.028500000000001
   138   2     -15.418100000000001     -10.571099999999999      18.682600000000001
   139   4                -15.2014                -11.6439      18.437000000000001
   140   4                -14.8993                -10.4031      19.609000000000002
   141   2     -10.334099999999999     -3.2649599999999999      4.8009599999999999
   142   4     -9.7456899999999997     -3.0756299999999999                 3.86972
   143   4     -32.900700000000001     -2.8921000000000001      4.6627999999999998
   144   7     -31.230799999999999                 -2.5907                 5.92265
   145   2     -30.466200000000001                 -3.4941      6.5076700000000001
   146   7                -29.6829     -3.2352799999999999      7.3771500000000003
   147   7     -9.1729900000000004     -4.7418800000000001      6.1974099999999996
   148   2     -10.283099999999999     -4.7227100000000002      5.3151200000000003
   149   4     -11.214399999999999     -4.8983400000000001      5.8238099999999999
   150   4     -10.092499999999999     -5.4311499999999997                 4.46854
   151   2     -26.382899999999999                -11.4754                 11.3607
   152   4     -26.342199999999998                 -10.474                 11.7706
   153   4     -26.829499999999999     -11.324199999999999                 10.3523
   154   7     -27.247800000000002                -12.1418      12.232699999999999
   155   2     -26.635899999999999                -13.2239                 12.7921
   156   7     -27.131399999999999                -13.9163      13.675000000000001
   157   7     -25.368600000000001                -13.3896                 12.2643
   158   2     -24.983000000000001     -12.184200000000001      11.484400000000001
   159   4                -24.6173      9.0272500000000004                 10.5585
   160   4     -24.212299999999999      9.9963700000000006      12.052899999999999
   161   2     -36.976700000000001                -3.98569      18.458500000000001
   162   4     -36.080599999999997     -4.4400199999999996      18.052600000000002
   163   4     -37.845300000000002     -4.3469800000000003                 17.8689
   164   7     -36.921500000000002     -2.5329199999999998      18.219999999999999
   165   2     -36.652500000000003     -1.9309799999999999      19.410799999999998
   166   7                -14.8375    -0.80860200000000004      19.554099999999998
   167   7     -36.684899999999999     -2.8316599999999998      20.477599999999999
   168   2                -37.1053     -4.1346999999999996      19.946899999999999
   169   4     -38.088700000000003     -4.2699999999999996      20.395700000000001
   170   4     -36.442300000000003     -4.8914299999999997      20.379999999999999
   171   2                -11.5885     -4.7905300000000004      14.989100000000001
   172   4                -10.9329     -5.5939399999999999      15.114599999999999
   173   4                -11.6708     -4.6042800000000002      13.902200000000001
   174   7                -11.0334                -3.58867                 15.6195
   175   2     -11.531700000000001     -3.5094699999999999      16.940100000000001
   176   7                -11.1981     -2.6776399999999998      17.760100000000001
   177   7     -12.499700000000001     -4.4888399999999997                 17.0474
   178   2     -12.891999999999999     -4.9786000000000001      15.738099999999999
   179   4     -13.718299999999999     -4.2651700000000003                 15.4815
   180   4                -13.2521     -6.0396200000000002      15.885199999999999
   181   2     -21.337199999999999                  -11.93      4.8582799999999997
   182   4     -21.361599999999999      10.367599999999999      4.0323599999999997
   183   4     -22.418299999999999     -12.180099999999999      5.0214999999999996
   184   7                -20.9071                 10.1982      6.1502699999999999
   185   2                -19.8933                -12.1214      6.6355599999999999
   186   7     -19.332100000000001     -11.812099999999999      7.6555299999999997
   187   7                -19.5303                -13.1067      5.7080799999999998
   188   2                -20.5152                -13.1845      4.6441499999999998
   189   4     -21.142700000000001                -14.0289      4.7807599999999999
   190   4                -19.9405     -13.327500000000001      25.215199999999999
   191   2     -23.675599999999999                -1.76797      18.600000000000001
   192   4     -22.650500000000001     -2.1240999999999999                 18.7973
   193   4     -23.342600000000001    -0.71680200000000005      18.484000000000002
   194   7     -24.388200000000001     -2.1480700000000001      19.807300000000001
   195   2                -25.5413     -2.7867299999999999      19.496200000000002
   196   7                -26.4161     -3.1565500000000002      20.226099999999999
   197   7     -25.520900000000001     -3.0404399999999998                 18.1709
   198   2     -24.502400000000002                -2.28016                 17.4818
   199   4     -25.059899999999999     -1.4550099999999999                 17.0107
   200   4     -23.978000000000002     -2.9938899999999999      16.883400000000002
   201   2     -22.936599999999999                -3.32423      22.417000000000002
   202   4     -22.831700000000001     -2.4250099999999999      23.026599999999998
   203   4     -22.780899999999999     -3.1371899999999999                 21.3657
   204   7     -24.358699999999999     -3.7638199999999999      22.627300000000002
   205   2                -24.3629     -5.1124900000000002      22.944600000000001
   206   7                -25.4114     -5.7419399999999996      23.070499999999999
   207   7     -23.177499999999998                -5.61144                 1.38334
   208   2     -22.143999999999998     -4.5049900000000003      1.4582999999999999
   209   4     -21.349699999999999     -4.9258899999999999     0.83753200000000005
   210   4     -22.006399999999999     -4.3557499999999996      2.5438499999999999
   211   2                -10.0968     -8.0025300000000001                 19.6205
   212   4     -9.7551000000000005     -8.6691199999999995                 18.7927
   213   4     -9.2910299999999992     -7.7622200000000001      20.339300000000001
   214   7                -11.1365     -8.8221399999999992      20.297899999999998
   215   2                -12.3469     -8.1250199999999992      20.199000000000002
   216   7                -13.4665     -8.5040300000000002      20.568000000000001
   217   7                -12.2056     -7.1115599999999999     -2.1736200000000001
   218   2                  -10.84                -6.76213     -2.4384000000000001
   219   4                -32.0304     -5.7611299999999996     -2.0593400000000002
   220   4     -10.704499999999999     -6.6573399999999996     -3.5175299999999998
   221   2     -22.386099999999999                 13.3561      14.757300000000001
   222   4     -21.955400000000001                 13.8392      13.898400000000001
   223   4     -22.690200000000001                 14.2094                 15.4611
   224   7     -21.305700000000002                 12.6471                 15.4955
   225   2     -21.585599999999999                 11.2966      15.555199999999999
   226   7     -20.910900000000002                 10.4811                 16.1843
   227   7     -22.649799999999999      10.973100000000001      14.772399999999999
   228   2     -23.394400000000001                 12.2295                 14.3965
   229   4     -24.327300000000001                 12.2364      15.027100000000001
   230   4                -23.6587      12.229100000000001                 13.3581
   231   2     -35.409799999999997      8.0640999999999998      15.979799999999999
   232   4     -36.065600000000003      8.9207599999999996                 15.6914
   233   4     -34.919499999999999      8.3540100000000006      16.921399999999998
   234   7     -34.360799999999998      8.0268700000000006                  14.914
   235   2                -34.0593      6.7100900000000001      14.732100000000001
   236   7     -11.593500000000001      6.2909199999999998                 14.0702
   237   7                -35.0289      5.8707099999999999                 15.3515
   238   2     -36.106499999999997                 6.72898      15.878500000000001
   239   4     -36.401200000000003      6.3854800000000003      16.861799999999999
   240   4                -36.9649      6.7042000000000002                 15.1812
   241   2     -35.090400000000002     -7.7475100000000001                 6.59152
   242   4     -35.439399999999999     -7.1300699999999999      7.4403199999999998
   243   4     -36.019599999999997     -8.2814300000000003      6.2899799999999999
   244   7     -34.168300000000002     -8.7110500000000002      6.9702599999999997
   245   2     -32.902200000000001     -8.1898599999999995      6.8268800000000001
   246   7     -31.871200000000002     -8.5695200000000007      7.3149699999999998
   247   7     -32.994500000000002     -7.1415600000000001                 5.90923
   248   2     -34.379199999999997     -7.0081600000000002      5.4910199999999998
   249   4     -34.392800000000001     -7.4908999999999999                 4.50352
   250   4     -34.672199999999997     -5.9137700000000004      5.4485000000000001
   251   2     -24.960000000000001     -6.6871499999999999      9.5989500000000003
   252   4                -24.5656     -5.7870999999999997                 10.0992
   253   4     -24.245999999999999                -7.24587      8.9930800000000009
   254   7     -26.101600000000001     -6.1982600000000003      8.8591800000000003
   255   2     -27.229399999999998     -6.2858499999999999      9.6217000000000006
   256   7                -28.2605     -5.6990499999999997      9.3785100000000003
   257   7                -26.9392     -6.8028199999999996                 10.8628
   258   2     -25.602699999999999     -7.5199499999999997      10.650399999999999
   259   4     -25.782299999999999                -8.64541                 10.2491
   260   4     -25.023199999999999     -7.6054199999999996      11.616199999999999
   261   2     -25.963000000000001      9.3563799999999997                 17.4984
   262   4     -25.564399999999999      8.6879399999999993      16.756399999999999
   263   4     -26.986699999999999      9.3321100000000001      17.789999999999999
   264   7                -25.7441      10.763400000000001                 17.0763
   265   2                -24.6829                  11.318                 17.6266
   266   7     -24.150700000000001                 12.3644      17.326799999999999
   267   7                -24.2531      10.664099999999999      18.752800000000001
   268   2     -25.067399999999999      9.3832500000000003      18.811900000000001
   269   4     -25.687799999999999      9.3774499999999996                 19.7437
   270   4     -24.321100000000001      8.6130399999999998      18.997499999999999
   271   2     -30.378299999999999     -7.6152100000000003                 11.4496
   272   4                -29.9267     -7.6766800000000002      10.453200000000001
   273   4     -31.519400000000001     -7.7987500000000001                 11.5092
   274   7     -30.246099999999998     -6.1909599999999996                 11.8847
   275   2                -29.3065     -6.0583400000000003                 12.7957
   276   7     -28.815799999999999     -5.0044000000000004      13.136699999999999
   277   7     -28.768799999999999     -7.3139000000000003                 13.1717
   278   2     -29.538499999999999     -8.3600899999999996                 12.4465
   279   4     -30.076899999999998     -8.9172399999999996      13.264699999999999
   280   4     -28.851700000000001     -9.0950299999999995      12.025700000000001
   281   2     -35.225700000000003      10.382099999999999      10.475199999999999
   282   4     -35.776200000000003      9.5248399999999993                 10.7691
   283   4     -35.497300000000003                 11.3726      10.922499999999999
   284   7     -35.523400000000002                -11.1365      9.0067900000000005
   285   2     -34.446199999999997                -11.8733      8.4502900000000007
   286   7     -34.411200000000001                -12.2417      7.3197200000000002
   287   7     -33.440399999999997                -12.0702      9.3643999999999998
   288   2     -33.776800000000001                 10.4155                 10.4985
   289   4                 -33.442                 11.4016      10.215199999999999
   290   4                -33.3581      10.098699999999999      11.461600000000001
   291   2     -25.419699999999999      5.9717500000000001      5.4348900000000002
   292   4     -25.287400000000002      6.1573599999999997      6.5567900000000003
   293   4     -25.457599999999999      7.0151399999999997      4.9810600000000003
   294   7     -26.624099999999999      5.2869599999999997                 5.10975
   295   2     -26.306000000000001      4.4362000000000004      4.0135100000000001
   296   7                -27.1187      3.9003100000000002                 3.32233
   297   7     -24.981200000000001      4.3411999999999997      3.8616600000000001
   298   2     -24.382899999999999      5.0056000000000003      5.0450200000000001
   299   4     -23.412299999999998      5.5041900000000004      4.7685300000000002
   300   4                 -24.212                 4.31663      5.8543500000000002
   301   2                -25.6721                 10.4221      5.8548499999999999
   302   4     -26.535499999999999      11.150700000000001      5.7784399999999998
   303   4     -25.094799999999999                 10.2897                 4.91608
   304   7     -26.205400000000001      9.1505399999999995      6.1620699999999999
   305   2     -26.159099999999999      9.0365199999999994      7.5561499999999997
   306   7                -26.6844      8.1559799999999996      8.2142499999999998
   307   7     -25.578499999999998                 10.1274      8.1461000000000006
   308   2                -24.8002                 10.7577      7.0190799999999998
   309   4     -23.843900000000001                 10.2143                  7.0404
   310   4     -24.699400000000001                 11.8523      7.2785299999999999
   311   2                -21.8156     -10.272600000000001      9.8416300000000003
   312   4     -21.212399999999999     -10.112399999999999      8.9383400000000002
   313   4                -22.6389                -10.9716      9.6236200000000007
   314   7     -22.499500000000001     -9.0593299999999992      10.218500000000001
   315   2     -21.810099999999998     -8.4979300000000002      11.237500000000001
   316   7     -21.964500000000001     -7.3087099999999996      11.594799999999999
   317   7     -21.065899999999999     -9.3974499999999992                 11.9251
   318   2     -21.064699999999998     -10.626200000000001                 11.1739
   319   4     -21.704999999999998                -11.3386      11.749700000000001
   320   4                -20.0199                -11.0075      10.939500000000001
   321   2                -18.4861      4.9955100000000003     -4.5189399999999997
   322   4     -18.725999999999999      5.6938399999999998     -5.3437400000000004
   323   4     -17.741199999999999      5.3111899999999999     -3.7408100000000002
   324   7     -39.433900000000001      3.7892600000000001     -5.1077000000000004
   325   2     -40.270400000000002      2.7524500000000001     -4.9497600000000004
   326   7     -40.051200000000001      1.6112200000000001     -5.3689299999999998
   327   7     -41.402000000000001                 3.07538     -4.1691700000000003
   328   2     -41.325699999999998      4.4664900000000003     -3.7774700000000001
   329   4     -41.224899999999998      4.5753399999999997     -2.6843599999999999
   330   4                -42.2074      5.1097000000000001     -4.0582500000000001
   331   2                -22.7486      1.5302100000000001      13.648400000000001
   332   4                 -23.459                 1.11991                 12.8873
   333   4     -22.552900000000001      2.5780099999999999                 13.4917
   334   7     -21.366599999999998     0.87392199999999998      13.511900000000001
   335   2     -21.281300000000002    0.012270100000000001      14.523300000000001
   336   7     -20.325700000000001    -0.79557299999999997                 14.5084
   337   7     -22.183199999999999                0.160659                 15.5298
   338   2                -23.1554                 1.23888      15.150399999999999
   339   4     -23.090599999999998      2.0508799999999998      15.910299999999999
   340   4     -24.165600000000001     0.78541899999999998      15.215299999999999
   341   2     -29.042000000000002      1.0086200000000001      11.941700000000001
   342   4     -28.925599999999999      1.8260099999999999      11.204599999999999
   343   4     -28.332699999999999     0.22672400000000001      11.668900000000001
   344   7     -30.435500000000001     0.58585299999999996      12.003299999999999
   345   2     -30.837900000000001     0.59065900000000005                 13.2844
   346   7     -31.832000000000001                0.109068      13.725199999999999
   347   7                -29.9222      1.1282799999999999      14.101100000000001
   348   2     -28.715199999999999                 1.57718      13.360200000000001
   349   4                -27.8248      1.0656000000000001      13.867000000000001
   350   4                -28.7409      2.6852299999999998                 13.4123
   351   2                -23.8447     -9.2765299999999993     0.27208300000000002
   352   4     -23.537099999999999     -8.2319200000000006     0.53160700000000005
   353   4     -23.794899999999998     -9.3632299999999997    -0.80565399999999998
   354   7                -25.1874     -9.4787099999999995     0.76630600000000004
   355   2     -25.028500000000001     -10.007099999999999                 2.02399
   356   7     -25.944500000000001     -9.9614799999999999                 2.79969
   357   7                -23.7913     -10.494999999999999                 2.28193
   358   2     -23.037400000000002                -10.2784      1.0129300000000001
   359   4     -22.925899999999999                 -11.254     0.55780399999999997