(written by ASE)

888 atoms
9 atom types

0.0      21.553999999999998  xlo xhi
0.0      21.553999999999998  ylo yhi
0.0                  21.544  zlo zhi

Atoms # atomic

     1   2     -33.903199999999998     -12.156599999999999      19.385899999999999
     2   4     -34.805599999999998                -11.5924                 19.4754
     3   4     -34.090200000000003                -13.1774      19.401800000000001
     4   7     -33.087299999999999                -12.0854      20.573899999999998
     5   2                -32.0869                -11.1614      20.344200000000001
     6   7     -31.348199999999999                -10.6662                 21.1449
     7   7     -32.039400000000001     -10.853999999999999      18.986999999999998
     8   2     -32.972299999999997     -11.695499999999999      18.310600000000001
     9   4     -32.403599999999997                -12.5891                 17.9224
    10   4                -33.4587                -11.0932      17.545200000000001
    11   2     -25.449200000000001     -7.2094399999999998      5.5319700000000003
    12   4     -25.076599999999999     -8.2202000000000002      5.1944400000000002
    13   4     -24.802700000000002                 14.8355      6.2410100000000002
    14   7     -26.700500000000002     -7.4596600000000004      6.2656000000000001
    15   2     -27.790700000000001     -7.3214800000000002      5.3983999999999996
    16   7     -28.895299999999999     -7.7049500000000002      5.6743600000000001
    17   7     -27.293199999999999     -6.7480900000000004      4.2057099999999998
    18   2     -25.967400000000001     -6.3137400000000001                 4.49458
    19   4     -26.014399999999998     -5.2998799999999999      4.8117599999999996
    20   4     -25.413799999999998     -6.5332299999999996      3.5897199999999998
    21   2     -24.809899999999999     -1.7374400000000001      2.4653100000000001
    22   4     -24.388400000000001                -2.57829      3.0025599999999999
    23   4     -24.275500000000001     -1.3999699999999999                  1.6085
    24   7     -24.990400000000001    -0.52627000000000002      3.2656499999999999
    25   2     -26.234500000000001   -0.079829800000000006      3.1144400000000001
    26   7     -26.725100000000001     0.89073599999999997      3.7134900000000002
    27   7                -26.9831    -0.86788600000000005      2.4031199999999999
    28   2     -26.241299999999999     -2.1025700000000001                 2.09511
    29   4     -26.414899999999999                -2.34402      1.0118400000000001
    30   4     -26.755299999999998     -2.8539599999999998      2.6632600000000002
    31   2                -15.7401      3.3334199999999998    -0.57083600000000001
    32   4     -16.234400000000001      4.1567100000000003             -0.00165197
    33   4                     -15                 2.73773    0.061810299999999999
    34   7     -15.132300000000001      3.9093399999999998     -1.7452300000000001
    35   2     -15.764900000000001      3.5607799999999998     -2.8764599999999998
    36   7     -15.507999999999999      3.9913400000000001                -3.99411
    37   7     -16.779299999999999                 2.69157     -2.6013000000000002
    38   2     -16.727399999999999      2.3437700000000001                -1.20367
    39   4                -16.4055                 1.31087                -1.00854
    40   4                -17.7682                 2.42197    -0.80340400000000001
    41   2     -21.424700000000001     -5.4934799999999999      18.130600000000001
    42   4                -21.0063     -4.4822699999999998      18.035699999999999
    43   4     -21.158300000000001                -6.10907      17.280000000000001
    44   7                -22.8812                -5.13957      18.122399999999999
    45   2     -23.453199999999999     -5.7081400000000002      19.158100000000001
    46   7                -24.6677                -5.56609                   19.41
    47   7     -22.665199999999999     -6.4005599999999996                 19.9254
    48   2     -21.213200000000001     -6.3303700000000003      19.412400000000002
    49   4     -20.867599999999999                -7.41059      19.181100000000001
    50   4     -20.493099999999998     -5.8089899999999997      20.170400000000001
    51   2     -18.013500000000001                 10.5139                 14.7721
    52   4     -17.282599999999999                 10.9254                 15.5886
    53   4     -19.036999999999999      11.003299999999999                 14.7401
    54   7     -18.315899999999999     -12.525700000000001      15.005800000000001
    55   2     -18.002600000000001                -13.2477      13.909800000000001
    56   7                -18.2058     -14.451499999999999      13.912699999999999
    57   7     -17.504200000000001      9.1097199999999994                  12.907
    58   2                -17.3172      10.425800000000001                 13.3827
    59   4     -17.716200000000001                 11.1998                 12.6656
    60   4     -16.199200000000001                 10.5678                 13.4823
    61   2     -17.623100000000001     -2.2963800000000001                 17.5047
    62   4     -18.063800000000001     -2.7101600000000001      16.595500000000001
    63   4     -16.570499999999999                -2.19374      17.487200000000001
    64   7     -17.892499999999998     -3.2657099999999999      18.531300000000002
    65   2                -18.8584     -2.7335799999999999                 19.3446
    66   7     -19.473600000000001     -3.3851100000000001      20.167999999999999
    67   7                -19.3127     -1.4550799999999999      19.024799999999999
    68   2     -18.335899999999999     -1.0023500000000001      18.077500000000001
    69   4     -17.611599999999999    -0.34776000000000001      18.569700000000001
    70   4     -18.905200000000001    -0.53274900000000003                   17.32
    71   2     -28.926100000000002      8.7610899999999994     -2.4698600000000002
    72   4     -29.634499999999999      9.1576199999999996                -1.67252
    73   4     -28.218599999999999      9.5879200000000004                -2.55335
    74   7     -29.718699999999998      8.5553000000000008                -3.70661
    75   2                -30.0061     -14.337899999999999     -3.7299899999999999
    76   7     -30.822800000000001                -14.8674     -4.4269600000000002
    77   7     -29.173300000000001      6.4671399999999997     -2.8637100000000002
    78   2     -28.273499999999999      7.3911800000000003     -2.2363599999999999
    79   4     -27.296600000000002      7.3754799999999996                -2.70614
    80   4                -28.1313      7.1563400000000001                -1.13788
    81   2     -30.507400000000001                -12.3607      8.8993000000000002
    82   4                -31.5869                 -12.586      8.6138899999999996
    83   4     -30.108599999999999                -12.8872      9.8392700000000008
    84   7     -30.409199999999998                -10.9009                 9.10168
    85   2                -29.2743                -10.4556      8.4792799999999993
    86   7                -28.8612     -9.3238299999999992      8.5241900000000008
    87   7     -28.638300000000001                -11.4404                 7.90761
    88   2     -29.459299999999999                -12.6075      7.8225800000000003
    89   4     -28.855799999999999                -13.4894      7.9471400000000001
    90   4                -29.9361                -12.7081      6.8458100000000002
    91   2     -18.613600000000002     -9.4331300000000002      22.808599999999998
    92   4     -18.727599999999999                -10.2613      22.077000000000002
    93   4     -19.220400000000001     -9.5960300000000007      23.685300000000002
    94   7     -19.239899999999999     -8.1891700000000007      22.196300000000001
    95   2     -18.325800000000001     -7.1841400000000002                 22.2316
    96   7     -18.537099999999999     -6.0232999999999999                 21.9649
    97   7     -17.169899999999998     -7.5944399999999996      22.738199999999999
    98   2     -17.157800000000002     -8.9953599999999998      23.071899999999999
    99   4                -16.9283     -9.1361799999999995      24.123999999999999
   100   4     -16.396999999999998     -9.5049399999999995      22.487500000000001
   101   2                 -18.927                -5.08453      8.2778899999999993
   102   4     -17.917899999999999                 -5.3891      8.3466100000000001
   103   4                -19.5229     -5.5159599999999998      7.4143499999999998
   104   7     -19.224799999999998     -3.6755900000000001      8.3288700000000002
   105   2     -19.941800000000001     -3.3648799999999999      9.3861600000000003
   106   7     -20.508600000000001     -2.3042799999999999      9.6019500000000004
   107   7     -19.936599999999999     -4.3294100000000002                  10.336
   108   2                -19.6372                -5.48543                 9.58277
   109   4     -20.647200000000002     -6.0022900000000003      9.4797100000000007
   110   4     -18.870899999999999     -6.0693000000000001                 10.1431
   111   2                -25.6677      6.8895900000000001     -5.6955299999999998
   112   4                -25.6525      7.6040900000000002                 15.0977
   113   4     -26.606200000000001      6.7678200000000004     -5.2848199999999999
   114   7     -24.713200000000001      7.4108900000000002     -4.6851799999999999
   115   2                -23.7044      6.5736499999999998     -4.4362000000000004
   116   7     -22.906600000000001      6.5867599999999999     -3.5045799999999998
   117   7     -23.866800000000001      5.4375499999999999     -5.2469999999999999
   118   2     -24.923200000000001      5.6065800000000001     -6.1951000000000001
   119   4                -25.5336      4.7652400000000004     -5.9180599999999997
   120   4     -24.561900000000001                 5.59551                 14.3345
   121   2     -38.796399999999998     -12.494999999999999      22.425599999999999
   122   4     -39.794199999999996                -12.8933                 22.1233
   123   4     -38.966999999999999     -12.013299999999999                 23.3718
   124   7     -38.456699999999998     -11.680300000000001      21.285900000000002
   125   2                 -37.698     -12.390000000000001                 20.3873
   126   7     -37.461199999999998                -12.0509      19.233599999999999
   127   7     -37.235999999999997     -13.549200000000001      21.002600000000001
   128   2     -37.714599999999997                -13.6005      22.434699999999999
   129   4     -37.044800000000002     -13.247999999999999      23.148299999999999
   130   4     -38.064999999999998                -14.6229      22.631499999999999
   131   2     -15.914899999999999     -7.9560500000000003                 17.7744
   132   4                -15.8805     -6.9867100000000004      17.286300000000001
   133   4     -15.020300000000001     -8.4291400000000003      17.448599999999999
   134   7     -17.088200000000001     -8.6934400000000007      17.368200000000002
   135   2     -17.864799999999999     -8.8815299999999997      18.534199999999998
   136   7     -18.982800000000001     -9.3697099999999995                 18.5063
   137   7     -17.235700000000001     -8.4407099999999993      19.626300000000001
   138   2     -16.035799999999998     -7.8171799999999996      19.304300000000001
   139   4                -15.1927     -8.4132700000000007      19.780999999999999
   140   4                -15.9305     -6.7923900000000001      19.721800000000002
   141   2     -8.3523800000000001     -3.4494199999999999      3.5716100000000002
   142   4     -8.2253699999999998     -4.0268199999999998      2.6662599999999999
   143   4     -29.880400000000002                -2.35161      3.3162699999999998
   144   7                -28.7453     -3.9230200000000002      4.3133800000000004
   145   2                -29.0852     -4.2754599999999998      5.5755699999999999
   146   7     -28.347899999999999     -4.6970499999999999      6.4559100000000003
   147   7     -8.8800899999999992     -4.0778999999999996      5.7588400000000002
   148   2     -9.5074799999999993     -3.8615400000000002                 4.44346
   149   4                -10.2287     -3.0918100000000002                 4.46319
   150   4     -9.8600300000000001     -4.7953299999999999      4.0213400000000004
   151   2     -25.435400000000001                -11.8827      12.075200000000001
   152   4     -25.324200000000001     -12.925700000000001                 11.7064
   153   4     -24.572199999999999     -11.282400000000001                 11.7165
   154   7                -25.4678                -11.7643      13.562900000000001
   155   2     -26.708300000000001     -11.380000000000001                 13.9465
   156   7                -27.0913                -11.3292      15.091100000000001
   157   7     -27.482500000000002                -10.9739                 12.8833
   158   2                -26.8475                 -11.413                 11.6509
   159   4     -26.914899999999999                 10.9503                 10.9384
   160   4                -27.3963      9.2848799999999994                 11.3132
   161   2     -34.966099999999997     -3.2656299999999998      18.342700000000001
   162   4                -34.0214     -3.7622300000000002      18.533300000000001
   163   4     -35.209099999999999                -3.38673      17.302900000000001
   164   7     -34.851399999999998                -1.84335                 18.5593
   165   2     -35.676499999999997     -1.4389400000000001      19.590599999999998
   166   7     -14.234299999999999    -0.29655799999999999      19.999199999999998
   167   7     -36.325000000000003     -2.5393300000000001                 20.1037
   168   2     -36.069000000000003     -3.7429000000000001      19.319500000000001
   169   4                -36.9985     -3.9987200000000001      18.811199999999999
   170   4     -35.701300000000003                -4.41289      20.045200000000001
   171   2     -13.098000000000001     -5.9300300000000004                 15.3681
   172   4     -13.552099999999999     -6.6270800000000003                 16.0565
   173   4                -12.2004     -5.6138000000000003                  15.923
   174   7     -13.975199999999999     -4.7532300000000003      15.414300000000001
   175   2     -14.361000000000001     -4.4035599999999997                 14.1317
   176   7     -15.097099999999999                -3.52115      13.812900000000001
   177   7     -13.889799999999999     -5.3507699999999998                  13.222
   178   2     -12.984500000000001     -6.3365099999999996      13.943199999999999
   179   4     -12.010300000000001                -6.22532      13.525600000000001
   180   4                -13.4245     -7.3281799999999997      13.805400000000001
   181   2     -22.076699999999999                -11.4718      4.8453799999999996
   182   4     -22.175599999999999                 11.0952      4.5482500000000003
   183   4     -22.878299999999999     -11.665699999999999      5.5472900000000003
   184   7     -20.806000000000001      10.024800000000001      5.7466999999999997
   185   2     -20.131599999999999     -12.693199999999999      5.5636799999999997
   186   7                -19.0701                -13.0501                 6.05518
   187   7     -20.745899999999999                -13.3238      4.4865199999999996
   188   2     -21.813199999999998     -12.533899999999999      3.8537699999999999
   189   4     -22.715699999999998                 -13.238      3.7722500000000001
   190   4     -21.567599999999999                -12.1776      24.456399999999999
   191   2     -23.753499999999999     -1.3051299999999999      18.729600000000001
   192   4     -22.692799999999998     -1.4343600000000001                 18.8674
   193   4                -23.8081    -0.23372000000000001      18.547799999999999
   194   7     -24.550999999999998                -1.54209      20.097100000000001
   195   2     -25.664100000000001     -2.1979799999999998      19.691700000000001
   196   7     -26.422699999999999     -2.5437099999999999      20.543900000000001
   197   7     -25.790900000000001     -2.4190200000000002      18.382899999999999
   198   2                -24.4376     -2.2682600000000002                 17.8583
   199   4     -24.497199999999999     -2.1424599999999998                 16.7744
   200   4     -23.977900000000002     -3.1955100000000001      17.992699999999999
   201   2     -22.081700000000001                -4.49139      23.465399999999999
   202   4                -22.0992     -4.1051299999999999                 24.4648
   203   4     -21.527200000000001     -3.9865699999999999      22.675599999999999
   204   7     -23.549600000000002     -4.4936499999999997      22.979800000000001
   205   2     -23.992899999999999     -5.7227800000000002      22.937200000000001
   206   7     -25.092300000000002     -5.9585900000000001      22.468699999999998
   207   7     -23.123999999999999     -6.6146099999999999      1.9308700000000001
   208   2     -21.741599999999998     -5.9908099999999997      1.8486100000000001
   209   4     -21.398199999999999     -6.2294099999999997                0.791381
   210   4     -21.173100000000002     -6.5005800000000002      2.5855199999999998
   211   2     -10.355700000000001     -7.5166899999999996      20.210999999999999
   212   4     -9.5551399999999997     -8.2953499999999991      20.263300000000001
   213   4     -10.575200000000001     -7.2895000000000003      21.253499999999999
   214   7                -11.5718     -8.0253200000000007      19.392600000000002
   215   2     -12.156599999999999     -7.0122999999999998      18.763999999999999
   216   7                -13.2659     -6.9617399999999998      18.336600000000001
   217   7                -11.2311     -5.8776000000000002                -2.81637
   218   2                -10.0169     -6.2495900000000004     -2.1216499999999998
   219   4                -31.4392     -5.4560899999999997                -1.43651
   220   4     -9.1313399999999998     -6.4755700000000003     -2.7129799999999999
   221   2                -23.3628                 13.7403                 14.5108
   222   4     -23.444500000000001      14.785399999999999                 14.8095
   223   4     -22.508700000000001      13.172700000000001                 14.8499
   224   7     -23.241800000000001                  13.699      13.030099999999999
   225   2     -24.276399999999999      12.998900000000001      12.537000000000001
   226   7     -24.513400000000001                 12.8725                 11.3361
   227   7     -25.129300000000001                 12.5427                 13.5273
   228   2                -24.6387                 12.9499      14.815899999999999
   229   4     -24.597200000000001                 11.9672      15.310499999999999
   230   4                -25.4603                 13.5472                 15.2201
   231   2                -36.1539      7.1994499999999997      17.627400000000002
   232   4     -35.889000000000003      7.6039500000000002      18.630099999999999
   233   4     -36.246699999999997      6.1421700000000001      17.600000000000001
   234   7     -35.039999999999999      7.5229600000000003      16.694700000000001
   235   2     -35.622599999999998      7.5069800000000004      15.375400000000001
   236   7     -13.523400000000001      7.3277700000000001                 14.3141
   237   7     -37.007100000000001                 7.53118                  15.459
   238   2     -37.312800000000003                 7.82036      16.857700000000001
   239   4     -38.247500000000002      7.2700500000000003      17.053999999999998
   240   4                -37.3245                 8.88171      16.985600000000002
   241   2     -33.228200000000001     -8.8876200000000001      7.2305700000000002
   242   4                -33.3705     -8.6853800000000003      8.2940100000000001
   243   4                -34.0321     -8.3761799999999997      6.6564399999999999
   244   7     -33.275300000000001                -10.3523      7.0283800000000003
   245   2     -32.273800000000001                -10.7416      6.1472300000000004
   246   7     -32.128399999999999                -11.9259      5.9062599999999996
   247   7     -31.542899999999999     -9.7034400000000005      5.6927000000000003
   248   2     -31.845600000000001     -8.4764700000000008      6.5514299999999999
   249   4     -31.928799999999999     -7.5802500000000004      5.9348200000000002
   250   4     -31.063300000000002     -8.4135200000000001      7.2907799999999998
   251   2                -23.2012     -6.8870800000000001      9.2329399999999993
   252   4     -22.625399999999999     -6.6758600000000001      8.3486200000000004
   253   4                -22.9542     -7.9499599999999999      9.5705899999999993
   254   7     -24.561800000000002     -6.7393900000000002      8.7583199999999994
   255   2                -25.2866     -5.8494299999999999      9.4688499999999998
   256   7     -26.482800000000001     -5.6162999999999998      9.3369499999999999
   257   7                -24.5166     -5.1962400000000004                 10.3369
   258   2                -23.1206     -5.8753399999999996                 10.3375
   259   4     -22.910299999999999     -6.1030300000000004                 11.4312
   260   4                -22.4239     -5.0864700000000003      10.090999999999999
   261   2     -25.269200000000001                 10.5273                 18.2254
   262   4     -25.632999999999999      10.066599999999999      17.332999999999998
   263   4     -25.791699999999999      10.130699999999999                  19.137
   264   7     -25.401900000000001      12.005000000000001      18.111499999999999
   265   2     -24.072199999999999                 12.5131      17.981200000000001
   266   7     -23.970600000000001      13.704800000000001      17.645299999999999
   267   7     -23.139900000000001                 11.6188                 18.2409
   268   2     -23.750499999999999      10.267300000000001      18.391500000000001
   269   4     -23.273800000000001      9.8671000000000006      19.305800000000001
   270   4     -23.485700000000001      9.6555999999999997                 17.5519
   271   2     -29.369499999999999     -8.1660000000000004      12.033899999999999
   272   4     -29.402100000000001     -8.4046500000000002                  10.955
   273   4     -29.146599999999999     -8.8846500000000006      12.778600000000001
   274   7     -30.656600000000001     -7.5767899999999999                 12.3756
   275   2     -30.398900000000001     -6.3180399999999999      12.858700000000001
   276   7     -31.157599999999999     -5.6387600000000004                   13.49
   277   7     -29.130299999999998     -5.8864599999999996                 12.5847
   278   2     -28.363600000000002                -7.01823      12.019600000000001
   279   4     -27.549600000000002     -7.1833900000000002                 12.7369
   280   4                -27.9421     -6.8211500000000003      11.069599999999999
   281   2     -34.834200000000003                 10.3674                 10.9474
   282   4     -35.305900000000001                 11.1922      10.428800000000001
   283   4     -34.488999999999997                  10.683                 11.9178
   284   7     -33.800899999999999     -11.644500000000001                 10.0166
   285   2     -34.240000000000002     -12.732799999999999      9.2954399999999993
   286   7     -33.536799999999999                -13.3704      8.5455100000000002
   287   7     -35.476399999999998                 -13.103                 9.71739
   288   2     -35.837499999999999      9.1686999999999994                 10.9315
   289   4     -35.591000000000001      8.5169999999999995                 11.8413
   290   4     -36.927500000000002      9.3550500000000003                 10.9063
   291   2                 -25.052      6.4647199999999998      6.1188500000000001
   292   4                -24.7347      6.0070100000000002      7.0560299999999998
   293   4     -25.194400000000002      7.5774299999999997      6.1652500000000003
   294   7                 -26.375      5.7865599999999997      5.7086399999999999
   295   2     -26.110700000000001                 5.06304                 4.48902
   296   7     -27.028700000000001      4.5087400000000004      3.8817499999999998
   297   7     -24.799199999999999      4.9358599999999999      4.2560099999999998
   298   2     -24.109200000000001      6.0087400000000004      5.0423200000000001
   299   4                 -23.808      6.8220900000000002      4.3181900000000004
   300   4                -23.1663                 5.62981      5.4862900000000003
   301   2     -26.035599999999999                 10.9291      6.4690799999999999
   302   4     -27.074200000000001      11.397399999999999      6.4988599999999996
   303   4     -25.630500000000001      10.904199999999999      5.4182600000000001
   304   7     -26.143599999999999      9.5845699999999994      7.0274400000000004
   305   2     -25.677299999999999      9.6276299999999999      8.2896800000000006
   306   7     -25.834399999999999      8.7373200000000004      9.0856899999999996
   307   7     -25.081700000000001      10.825799999999999      8.6089800000000007
   308   2     -25.145199999999999      11.681100000000001                 7.43912
   309   4     -24.142099999999999      11.885199999999999                 7.05694
   310   4                -25.5365                 12.6608      7.7097499999999997
   311   2                -20.9636     -11.020899999999999      8.9464299999999994
   312   4     -21.133400000000002     -10.912800000000001      7.8769799999999996
   313   4     -21.554300000000001                -11.8367      9.4353999999999996
   314   7     -21.362500000000001     -9.8925400000000003      9.8189799999999998
   315   2     -20.502500000000001     -9.6966900000000003      10.760400000000001
   316   7                -20.6356     -8.8605800000000006                 11.6145
   317   7     -19.443999999999999     -10.571899999999999      10.680099999999999
   318   2                -19.5381     -11.202999999999999                 9.39344
   319   4     -19.225300000000001     -12.183400000000001      9.5103799999999996
   320   4     -18.787500000000001                -10.7418      8.6951499999999999
   321   2     -21.601600000000001      2.8176100000000002     -3.4274200000000001
   322   4     -21.591999999999999      3.1458599999999999     -2.3808600000000002
   323   4                 -22.634                 2.74884                  -3.714
   324   7     -42.530500000000004      1.4152400000000001     -3.5133999999999999
   325   2     -42.202500000000001      1.3120099999999999     -4.8250200000000003
   326   7     -42.109200000000001     0.24252599999999999     -5.3791599999999997
   327   7     -41.997100000000003      2.5512899999999998     -5.4594300000000002
   328   2     -42.281999999999996      3.5863399999999999     -4.4020099999999998
   329   4     -42.841700000000003                 4.28904     -5.0168499999999998
   330   4     -41.357799999999997      4.0186999999999999     -3.9434399999999998
   331   2     -24.516400000000001     0.83831900000000004                 14.9687
   332   4     -24.109200000000001     0.67980200000000002                 15.9346
   333   4     -25.519100000000002     0.32302199999999998      14.951700000000001
   334   7     -23.568899999999999   -0.030015300000000002      14.265000000000001
   335   2     -22.819800000000001     0.68203999999999998      13.373200000000001
   336   7     -21.784700000000001     0.29077700000000001                  12.824
   337   7                -23.2637      2.0242200000000001                  13.262
   338   2     -24.353999999999999      2.2276500000000001      14.332800000000001
   339   4     -25.171700000000001      2.6779700000000002                 13.7805
   340   4                -23.9297      2.9834499999999999      14.990399999999999
   341   2                -29.1783      2.4224600000000001      11.749700000000001
   342   4     -29.446300000000001      3.4712800000000001      11.848000000000001
   343   4                -29.0061      2.1160600000000001      10.712400000000001
   344   7     -30.313600000000001      1.6738999999999999                 12.2972
   345   2     -29.912199999999999                 1.12449                 13.4771
   346   7                -30.7273     0.53639099999999995                 14.1692
   347   7     -28.652899999999999                 1.28748      13.771599999999999
   348   2                -28.0229      1.9252400000000001      12.623200000000001
   349   4     -27.525700000000001      1.1648400000000001                 12.0777
   350   4     -27.383299999999998      2.7231200000000002      12.960699999999999
   351   2                -24.5181     -9.3103499999999997     0.18052799999999999
   352   4     -24.288599999999999     -8.3788999999999998               -0.322546
   353   4     -24.924099999999999     -10.043900000000001    -0.59065400000000001
   354   7     -25.561399999999999     -9.1028500000000001      1.2250700000000001
   355   2     -25.234300000000001     -9.7596600000000002                 2.35683
   356   7                -26.0763     -9.9806299999999997      3.2040099999999998
   357   7     -23.903500000000001     -10.081300000000001      2.2555499999999999
   358   2     -23.328600000000002     -9.8698899999999998     0.91737000000000002
   359   4     -22.849299999999999                -10.8248     0.60656600000000005