(written by ASE)

888 atoms
9 atom types

0.0      21.553999999999998  xlo xhi
0.0      21.553999999999998  ylo yhi
0.0                  21.544  zlo zhi

Atoms # atomic

     1   2                -32.9619                -12.1989      20.545500000000001
     2   4     -33.881300000000003     -12.122199999999999      21.155000000000001
     3   4                -32.0946     -12.639099999999999      20.942699999999999
     4   7     -32.580500000000001                -10.8775                 20.1434
     5   2     -32.427999999999997                -10.8338      18.829899999999999
     6   7     -32.083199999999998     -9.7714499999999997      18.282800000000002
     7   7     -32.679000000000002     -11.997999999999999      18.178100000000001
     8   2     -33.216500000000003     -12.924899999999999      19.155000000000001
     9   4     -32.752899999999997                 -13.884      18.903500000000001
    10   4     -34.304499999999997     -13.098800000000001      18.889900000000001
    11   2     -26.564900000000002     -6.5872799999999998      5.5093399999999999
    12   4     -25.785499999999999     -6.8467500000000001      6.1543900000000002
    13   4                -26.5684      16.011399999999998      5.4435000000000002
    14   7     -27.867100000000001     -7.1522399999999999      5.9765899999999998
    15   2     -28.614599999999999     -7.4930599999999998      4.8899699999999999
    16   7     -29.818200000000001     -7.7598700000000003      4.9686500000000002
    17   7     -27.854399999999998     -7.4182499999999996      3.7190500000000002
    18   2     -26.483000000000001     -7.1359300000000001      4.0606900000000001
    19   4     -26.172999999999998     -6.4958299999999998      3.2187800000000002
    20   4     -25.809699999999999     -8.0268599999999992      4.0029300000000001
    21   2     -27.725000000000001     -3.7666300000000001      2.5924499999999999
    22   4                -28.6464     -3.8389099999999998                 1.97045
    23   4     -27.380099999999999     -4.6498799999999996                 3.06311
    24   7     -28.038900000000002     -2.8017400000000001      3.6531400000000001
    25   2                -27.4177     -1.5659099999999999                 3.44062
    26   7     -27.631599999999999    -0.60167000000000004                 4.13781
    27   7     -26.526199999999999     -1.7023600000000001      2.4819599999999999
    28   2     -26.544499999999999     -3.0507599999999999      1.8668800000000001
    29   4     -25.576899999999998     -3.4405199999999998      2.0793599999999999
    30   4                -26.6219     -2.9464700000000001     0.73234900000000003
    31   2     -12.687200000000001      3.5924700000000001                -1.89479
    32   4                 -11.618                 3.79528                -1.82131
    33   4     -12.955299999999999      2.8220700000000001                -1.18438
    34   7     -12.866300000000001      3.1560899999999998     -3.2520799999999999
    35   2     -13.611000000000001      4.0592199999999998     -3.9127999999999998
    36   7     -13.946899999999999      4.0193700000000003     -5.0666900000000004
    37   7                -14.0764      5.0376200000000004     -3.0965699999999998
    38   2                -13.5563                 4.85928     -1.7663800000000001
    39   4                -14.3527      4.8445099999999996                -1.08579
    40   4     -13.010300000000001      5.7930900000000003     -1.5344599999999999
    41   2     -21.332899999999999     -6.5597399999999997      17.290199999999999
    42   4     -20.638200000000001     -6.1848200000000002      16.529499999999999
    43   4     -20.861499999999999     -7.5928699999999996      17.580100000000002
    44   7     -22.703600000000002     -6.6250900000000001      16.735600000000002
    45   2     -23.580300000000001     -6.3645399999999999      17.694400000000002
    46   7     -24.790199999999999     -6.5426500000000001      17.592700000000001
    47   7     -23.033899999999999     -5.8493599999999999      18.795200000000001
    48   2                -21.5764     -5.6803299999999997                  18.555
    49   4     -20.912800000000001     -6.0047199999999998      19.366800000000001
    50   4     -21.405100000000001     -4.6156699999999997      18.475200000000001
    51   2     -17.405100000000001      11.614000000000001      13.494300000000001
    52   4                -16.8962      11.708500000000001                 14.4278
    53   4     -18.188400000000001      12.405900000000001                 13.4343
    54   7     -18.042400000000001                -11.2624                  13.555
    55   2     -18.089700000000001     -11.755000000000001      12.299200000000001
    56   7     -18.991199999999999                -12.5259      12.067299999999999
    57   7     -17.243500000000001      10.370900000000001      11.490600000000001
    58   2                -16.6463                 11.5543      12.170400000000001
    59   4     -16.837199999999999                 12.4848      11.620200000000001
    60   4                -15.5168      11.471500000000001                 12.0999
    61   2     -18.880099999999999     -2.4184399999999999      17.634599999999999
    62   4     -19.757899999999999     -1.7994000000000001      17.497800000000002
    63   4     -18.433399999999999     -2.8769300000000002      16.775099999999998
    64   7     -19.191099999999999     -3.4604900000000001                 18.5671
    65   2                -18.7516     -3.1947399999999999      19.796299999999999
    66   7     -18.912400000000002                -3.87948      20.813400000000001
    67   7     -18.036999999999999     -2.0564200000000001      19.771599999999999
    68   2     -17.868600000000001     -1.5974600000000001      18.388500000000001
    69   4     -16.848099999999999     -1.7910699999999999      18.107199999999999
    70   4     -17.896899999999999    -0.50557799999999997      18.384699999999999
    71   2     -28.371700000000001      7.0601099999999999     -3.2567200000000001
    72   4                -27.3093      7.3703099999999999     -3.3624800000000001
    73   4     -28.622299999999999      6.5812299999999997                -4.18825
    74   7                -29.2361      8.1351800000000001     -3.0459200000000002
    75   2     -29.447500000000002     -13.279299999999999                -1.69136
    76   7     -29.978400000000001     -12.285399999999999     -1.1666300000000001
    77   7                -28.9558                 7.21699    -0.98077899999999996
    78   2     -28.606999999999999      6.2380000000000004                -1.96048
    79   4     -29.367000000000001      5.4390700000000001     -2.1239699999999999
    80   4                -27.6416      5.9526300000000001                -1.56151
    81   2     -30.299499999999998                -12.8703      9.0615600000000001
    82   4     -31.301200000000001     -13.081099999999999      9.4670100000000001
    83   4                -29.5871     -13.591900000000001      9.5629799999999996
    84   7     -29.969899999999999     -11.474299999999999      9.5367899999999999
    85   2     -29.183399999999999     -10.965400000000001      8.5942600000000002
    86   7                -28.5304     -9.8740799999999993      8.6777599999999993
    87   7                 -29.113                -11.6342      7.4454000000000002
    88   2     -30.157399999999999     -12.647600000000001      7.5484400000000003
    89   4     -29.912400000000002                -13.5328                  6.9958
    90   4     -31.193300000000001                -12.3454                 7.12331
    91   2     -18.523700000000002     -9.8270700000000009      23.193899999999999
    92   4                -17.8673                -10.7217                 23.0563
    93   4                -18.8855                -9.88706                 24.2104
    94   7     -19.647200000000002                -9.79617      22.202200000000001
    95   2     -19.587299999999999     -8.6430199999999999      21.480799999999999
    96   7     -20.286999999999999     -8.3325300000000002                 20.5395
    97   7     -18.659700000000001     -7.7522500000000001      22.052399999999999
    98   2     -17.785399999999999     -8.4749599999999994      22.954499999999999
    99   4     -17.703099999999999                -7.89893      23.877400000000002
   100   4     -16.757100000000001     -8.5182300000000009      22.486999999999998
   101   2                -20.7728     -5.0044199999999996      8.8732000000000006
   102   4     -20.631499999999999     -4.9746100000000002      9.9253599999999995
   103   4     -20.683900000000001     -6.0420499999999997      8.5260800000000003
   104   7     -19.584399999999999     -4.3780200000000002      8.1741799999999998
   105   2     -19.957899999999999     -3.1728299999999998      7.6603500000000002
   106   7     -19.230699999999999                -2.34362      7.1383700000000001
   107   7     -21.262499999999999                 -2.9091      7.8772700000000002
   108   2     -21.936599999999999     -4.1271500000000003      8.3976699999999997
   109   4     -22.764199999999999     -4.4233399999999996      7.7123100000000004
   110   4                -22.4191     -3.6743600000000001      9.2482199999999999
   111   2     -25.237500000000001      5.4478799999999996     -4.3211199999999996
   112   4     -25.873100000000001      6.1194100000000002      16.717099999999999
   113   4     -25.807700000000001      4.8035699999999997     -3.5861399999999999
   114   7     -24.240600000000001      6.3484100000000003     -3.6960799999999998
   115   2     -23.085599999999999      5.7307800000000002                -3.50475
   116   7     -22.088100000000001      6.1716899999999999     -2.9271199999999999
   117   7     -23.097200000000001      4.5696500000000002                -4.32742
   118   2     -24.288900000000002      4.5922999999999998     -5.1376600000000003
   119   4     -24.668500000000002      3.5200900000000002     -5.1691700000000003
   120   4     -24.087599999999998      4.8006099999999998                 15.3369
   121   2     -38.025300000000001                -12.9407      22.416499999999999
   122   4     -39.030000000000001     -13.225300000000001      22.091699999999999
   123   4     -38.010300000000001                 -12.426      23.353000000000002
   124   7     -37.741100000000003     -11.870900000000001      21.459599999999998
   125   2                -36.8611     -12.356199999999999      20.575600000000001
   126   7     -36.644500000000001                -11.7948      19.553899999999999
   127   7     -36.329500000000003                 -13.535      20.958200000000001
   128   2     -36.915900000000001                -13.9267      22.293500000000002
   129   4     -36.167299999999997     -13.859500000000001      23.066400000000002
   130   4                -37.2517                -14.9735      22.297599999999999
   131   2                -15.5883     -8.7856400000000008                 17.6768
   132   4     -15.478999999999999     -7.7921500000000004      17.302700000000002
   133   4     -14.708299999999999     -9.4274000000000004                 17.4329
   134   7     -16.748999999999999     -9.3590099999999996      16.985600000000002
   135   2     -17.904599999999999     -9.2733299999999996                 17.7638
   136   7                -19.0489     -9.5483700000000002      17.400600000000001
   137   7     -17.576499999999999                -8.98935      19.068999999999999
   138   2     -16.039100000000001     -8.8868200000000002                 19.1434
   139   4     -15.767200000000001                -9.87683      19.633900000000001
   140   4     -15.924200000000001     -8.0047099999999993      19.762499999999999
   141   2     -9.8439099999999993     -3.5352999999999999      5.5440899999999997
   142   4     -9.9358900000000006     -2.5532699999999999      4.9594100000000001
   143   4     -32.413800000000002     -3.9281199999999998      5.8134699999999997
   144   7                -30.7989     -3.1783000000000001      6.8411799999999996
   145   2                -29.5563     -3.7346699999999999      6.9667399999999997
   146   7                -28.8231                -3.61226      7.9642099999999996
   147   7                -7.80687     -4.5390499999999996      5.9617899999999997
   148   2     -8.9442299999999992                -4.61435      5.0323799999999999
   149   4     -9.4185199999999991     -5.5978599999999998      5.1455599999999997
   150   4     -8.5805399999999992     -4.4318799999999996                 3.99438
   151   2     -26.613700000000001                -13.3446      11.457599999999999
   152   4     -26.532299999999999     -12.251799999999999      11.474500000000001
   153   4     -27.187999999999999                -13.5779                 10.5764
   154   7     -27.459399999999999     -13.721500000000001                 12.5938
   155   2     -26.634799999999998                -14.1206      13.604100000000001
   156   7                -26.9848                -14.2553                 14.7522
   157   7                -25.4162     -14.489000000000001      13.154999999999999
   158   2     -25.256499999999999                -14.0518      11.751200000000001
   159   4                -25.0032      6.5577300000000003                 11.1713
   160   4     -24.359000000000002      8.2023600000000005                 11.6927
   161   2     -35.824399999999997                 -1.7605      19.206800000000001
   162   4     -34.813099999999999     -2.0048699999999999                 19.0762
   163   4     -36.380299999999998                -2.37053      18.472999999999999
   164   7     -36.044699999999999    -0.36111599999999999      18.831600000000002
   165   2     -36.600900000000003     0.27212900000000001      19.869700000000002
   166   7     -15.405200000000001      1.4596199999999999                 19.7395
   167   7     -36.676900000000003    -0.46116800000000002      20.984500000000001
   168   2                -36.3093                -1.89951                 20.6586
   169   4                -37.1646                -2.64493      20.690300000000001
   170   4     -35.523299999999999                -2.22499      21.349299999999999
   171   2     -12.311400000000001     -4.6408500000000004                 15.3729
   172   4     -11.508900000000001     -5.3207700000000004      15.369999999999999
   173   4     -12.946999999999999     -4.6121400000000001      14.487299999999999
   174   7                -11.7729                 -3.2517                 15.5002
   175   2     -11.953099999999999     -2.8352300000000001      16.821300000000001
   176   7     -11.525499999999999                -1.79643      17.295000000000002
   177   7                -12.7502     -3.6928100000000001      17.541599999999999
   178   2     -13.251200000000001     -4.7677699999999996      16.580500000000001
   179   4                -14.3172     -4.5606499999999999                 16.3812
   180   4     -13.351800000000001     -5.6859599999999997                 17.1251
   181   2     -22.414200000000001     -11.972200000000001      4.5661899999999997
   182   4     -22.930499999999999      10.389799999999999      4.0150600000000001
   183   4     -23.043500000000002     -12.798500000000001      4.9623799999999996
   184   7                -21.5535                   10.08      5.5794600000000001
   185   2                -20.5029                -12.3925      5.6377699999999997
   186   7                -19.7133     -12.449999999999999      6.5037599999999998
   187   7     -20.466899999999999     -13.186199999999999      4.5888799999999996
   188   2                 -21.404                -12.6518      3.6041400000000001
   189   4     -21.867100000000001                -13.5344      3.1673399999999998
   190   4     -20.869800000000001                -11.9383      24.480499999999999
   191   2                -23.4513    -0.91649400000000003      18.140699999999999
   192   4     -22.661100000000001    -0.97176899999999999      18.897300000000001
   193   4     -23.789000000000001    0.035555000000000003                 17.7332
   194   7                -24.6785                -1.32826      18.863399999999999
   195   2     -24.771999999999998     -2.6547900000000002      18.683399999999999
   196   7                -25.4893     -3.3938600000000001                 19.3062
   197   7     -23.933499999999999                -3.10663                  17.747
   198   2     -23.248799999999999     -2.0110299999999999      17.072099999999999
   199   4                -23.6342                -1.70787      16.103300000000001
   200   4     -22.158200000000001     -2.3137599999999998      16.922499999999999
   201   2     -22.571999999999999     -2.8316699999999999      22.231999999999999
   202   4     -22.675899999999999     -2.4860699999999998      23.282800000000002
   203   4                -22.2941                -1.98003      21.578499999999998
   204   7     -23.870799999999999     -3.2504599999999999      21.809200000000001
   205   2     -23.951899999999998     -4.5907099999999996                 21.9162
   206   7     -24.993600000000001     -5.2576599999999996      21.782399999999999
   207   7                -22.7286     -5.2062299999999997     0.58909199999999995
   208   2                -21.7623     -4.0835100000000004     0.48888500000000001
   209   4     -21.226600000000001     -4.1147799999999997    -0.52542500000000003
   210   4                -20.9998     -4.0799300000000001                 1.31674
   211   2                 -12.211     -7.1859299999999999                 19.1065
   212   4                -12.2887                -7.27027      18.004000000000001
   213   4     -11.653499999999999     -7.9912999999999998      19.575099999999999
   214   7     -13.527100000000001     -7.2970100000000002      19.723099999999999
   215   2                -13.9971     -6.0630899999999999                 20.0444
   216   7     -15.143800000000001                -5.94048      20.386500000000002
   217   7                -12.9887     -5.1313000000000004                -1.48794
   218   2                -11.6922     -5.8067500000000001                -1.89985
   219   4     -32.447800000000001     -5.7013999999999996                -1.10185
   220   4     -11.330500000000001     -5.2084200000000003                -2.69197
   221   2                -20.6661      11.125500000000001                 14.4726
   222   4     -20.105899999999998                  11.564                 13.6776
   223   4                -20.0871                 10.6593      15.233499999999999
   224   7                -21.4971      10.050700000000001      13.986800000000001
   225   2                 -22.794      10.486599999999999      13.965999999999999
   226   7     -23.753699999999998      9.8581199999999995      13.527100000000001
   227   7     -22.891999999999999      11.783200000000001                 14.4451
   228   2                -21.6541                 12.1402                 15.0383
   229   4                -21.7242                  12.212      16.152799999999999
   230   4     -21.499099999999999      13.155099999999999      14.649100000000001
   231   2     -36.193899999999999      9.2915399999999995      16.502700000000001
   232   4     -37.069600000000001      9.3340499999999995      17.141400000000001
   233   4     -35.579300000000003      10.210000000000001                 16.6418
   234   7                -36.5931      9.4546200000000002                 15.1244
   235   2                -36.0777      8.4838100000000001                 14.3584
   236   7     -14.614699999999999      8.3933099999999996      13.124700000000001
   237   7     -35.323999999999998      7.5941599999999996      15.096500000000001
   238   2     -35.456800000000001      7.9354699999999996      16.496600000000001
   239   4     -34.410299999999999      7.9595200000000004      16.837199999999999
   240   4     -35.974699999999999      7.0488099999999996      16.998899999999999
   241   2     -34.090000000000003     -9.3553599999999992      6.5620799999999999
   242   4                -34.8628     -8.6096199999999996      6.4700699999999998
   243   4     -34.525399999999998                -10.3089      6.2518799999999999
   244   7     -33.619700000000002     -9.3709399999999992      7.8853299999999997
   245   2     -32.263800000000003                -9.14527      7.9125800000000002
   246   7                -31.5655     -9.0029299999999992      8.9470500000000008
   247   7                -31.7105     -9.0331200000000003      6.6880699999999997
   248   2     -32.798000000000002     -8.9597499999999997      5.7160900000000003
   249   4     -32.621400000000001     -9.7087199999999996      4.9466599999999996
   250   4     -32.874400000000001     -7.9686599999999999      5.2534099999999997
   251   2     -23.933299999999999     -6.6799299999999997      9.6854899999999997
   252   4     -23.294699999999999     -5.8423999999999996      9.8892799999999994
   253   4                -23.6204     -7.0564299999999998      8.6681399999999993
   254   7                -25.2287     -6.0316200000000002      9.4505999999999997
   255   2     -26.215699999999998     -6.9723499999999996      9.7930899999999994
   256   7     -27.347999999999999     -6.7254199999999997      9.6449800000000003
   257   7     -25.727900000000002     -7.9467400000000001      10.432399999999999
   258   2     -24.260000000000002                -7.73285                  10.666
   259   4                -23.7331                 -8.7477      10.442600000000001
   260   4     -24.081800000000001     -7.4299600000000003                 11.7216
   261   2     -25.696200000000001      9.3568599999999993                 19.6874
   262   4                -25.6265      8.3341100000000008                 19.3401
   263   4     -26.578600000000002      9.5966299999999993                 20.3218
   264   7                -25.8887      10.153499999999999                 18.4603
   265   2     -24.750900000000001                 10.9131                   18.34
   266   7     -24.557200000000002      11.717700000000001                 17.4133
   267   7     -23.829899999999999                 10.6242      19.287600000000001
   268   2     -24.386299999999999      9.6957799999999992      20.344100000000001
   269   4     -24.361899999999999      10.147500000000001      21.347899999999999
   270   4     -23.705200000000001      8.8457299999999996                 20.4755
   271   2     -30.354800000000001     -8.1943300000000008      11.927300000000001
   272   4     -30.814900000000002     -8.1760699999999993      10.932499999999999
   273   4                -31.0929     -8.6510499999999997      12.653499999999999
   274   7     -30.156099999999999     -6.8079299999999998                 12.2403
   275   2     -28.877400000000002     -6.6158799999999998      12.704800000000001
   276   7     -28.380099999999999     -5.5820699999999999      13.062900000000001
   277   7     -28.139500000000002     -7.7552000000000003                 12.5989
   278   2     -28.902799999999999     -8.8053299999999997      12.006600000000001
   279   4     -28.913699999999999     -9.7065599999999996      12.674099999999999
   280   4                -28.4832     -9.1209199999999999                 10.9983
   281   2     -36.049900000000001                 10.0108      10.067299999999999
   282   4     -36.579999999999998      9.1501699999999992      10.402100000000001
   283   4     -36.728299999999997      10.857799999999999      9.9070900000000002
   284   7     -35.507899999999999                -11.8385      8.7260399999999994
   285   2     -34.279800000000002                 -12.371      8.9696700000000007
   286   7     -33.610999999999997                -12.9053      8.0949600000000004
   287   7     -33.912300000000002                 -12.225                  10.222
   288   2     -34.843299999999999      10.326700000000001                 10.8201
   289   4                -34.4176                 11.2821                 10.5427
   290   4     -34.920000000000002      10.131500000000001      11.888500000000001
   291   2     -27.290299999999998      5.6501299999999999      4.8220999999999998
   292   4     -28.034600000000001      5.6969799999999999      5.5735999999999999
   293   4     -27.225100000000001      6.5708700000000002      4.2513500000000004
   294   7     -27.756699999999999      4.5262000000000002      4.0219399999999998
   295   2                -27.1447      3.3649100000000001      4.4191599999999998
   296   7                -27.4922      2.2788400000000002      4.1332800000000001
   297   7     -26.093800000000002      3.6426799999999999      5.2200300000000004
   298   2     -25.879200000000001      5.1394299999999999      5.2374900000000002
   299   4     -25.013999999999999      5.4172700000000003      4.5976299999999997
   300   4     -25.765999999999998      5.4312500000000004      6.2486499999999996
   301   2     -26.162500000000001                 10.0753      5.8292200000000003
   302   4     -27.213999999999999      10.457700000000001      5.8477199999999998
   303   4     -25.677800000000001                 10.2324      4.8250299999999999
   304   7     -26.330300000000001      8.6103799999999993      6.1092000000000004
   305   2                -26.2437      8.4680700000000009      7.4390099999999997
   306   7     -26.575800000000001      7.4351599999999998      7.9599500000000001
   307   7     -25.906099999999999      9.5899699999999992      8.0525699999999993
   308   2     -25.352499999999999                  10.512      7.0885999999999996
   309   4     -24.288699999999999      10.370699999999999      6.9976500000000001
   310   4     -25.556100000000001      11.536799999999999      7.4151800000000003
   311   2     -20.640699999999999                -10.6045      9.3997200000000003
   312   4                -20.1724                -11.6053      9.3864999999999998
   313   4     -20.935199999999998                -10.2568      8.4201300000000003
   314   7                -19.8337     -9.4915400000000005      9.9751600000000007
   315   2     -20.429099999999998     -9.0396699999999992                  11.121
   316   7     -19.984300000000001     -8.1024999999999991      11.788500000000001
   317   7                -21.5745                -9.72119                 11.4535
   318   2     -21.945599999999999     -10.622199999999999      10.376099999999999
   319   4     -22.845199999999998     -10.249000000000001                 9.95749
   320   4                -22.1387     -11.618399999999999                 10.8566
   321   2     -17.284400000000002      4.2808900000000003     -4.5056000000000003
   322   4                -17.0916      5.0221999999999998     -5.3381100000000004
   323   4     -16.567900000000002      4.4854599999999998                -3.67123
   324   7     -38.666899999999998      2.8853800000000001     -4.8947099999999999
   325   2     -39.932400000000001      2.3449399999999998     -5.0202499999999999
   326   7                -40.1126                 1.22414     -5.3964400000000001
   327   7     -40.852899999999998      3.0941000000000001     -4.4510699999999996
   328   2     -40.287799999999997      4.3896199999999999     -4.0345300000000002
   329   4     -40.311300000000003      4.3506400000000003     -2.9563100000000002
   330   4     -40.888300000000001                 5.12704                -4.51966
   331   2                -21.8489      2.4334099999999999                 14.1593
   332   4     -21.525500000000001                 3.12093                 13.3361
   333   4     -21.903600000000001      2.9707499999999998      15.094099999999999
   334   7                -20.8842                 1.44337      14.374000000000001
   335   2     -21.411999999999999                0.256801                 14.7501
   336   7     -20.697099999999999    -0.77024800000000004                  14.962
   337   7                -22.7681     0.27168700000000001      14.711399999999999
   338   2                -23.0946      1.5657399999999999      14.010400000000001
   339   4     -23.902200000000001      1.9739800000000001                 14.5602
   340   4                -23.4846      1.3474699999999999                 13.0161
   341   2     -28.427600000000002      1.7032700000000001      12.069599999999999
   342   4     -28.941099999999999                 2.53152                 11.6128
   343   4     -27.782800000000002                 1.15784                 11.3561
   344   7     -29.484200000000001     0.80906800000000001      12.544700000000001
   345   2     -29.604299999999999     0.88638899999999998                 13.9138
   346   7                -30.4558     0.31656899999999999                 14.5389
   347   7     -28.716899999999999                 1.83355                  14.413
   348   2                -27.6861      2.0339999999999998      13.324999999999999
   349   4     -26.866299999999999      1.2562899999999999      13.505000000000001
   350   4     -27.302900000000001                 3.05707      13.418799999999999
   351   2                -24.2273     -8.4528300000000005     0.37292900000000001
   352   4     -24.448699999999999     -7.4268200000000002    0.030959899999999999
   353   4     -23.776399999999999                -9.06785    -0.42107499999999998
   354   7     -25.433599999999998     -9.0640199999999993     0.88589099999999998
   355   2     -25.197500000000002     -9.6854399999999998      2.0792199999999998
   356   7     -25.959399999999999     -10.500400000000001      2.5906099999999999
   357   7     -24.023299999999999     -9.2539300000000004      2.5759400000000001
   358   2                 -23.352     -8.3149499999999996      1.6663399999999999
   359   4     -22.323699999999999     -8.6595600000000008                 1.48627