(written by ASE)

915 atoms
9 atom types

0.0      21.712770568302616  xlo xhi
0.0      21.712770568302616  ylo yhi
0.0      21.712770568302616  zlo zhi

Atoms # atomic

     1   2                 14.4475      4.6749200000000002      6.0746599999999997
     2   2      14.734999999999999                  3.1732      6.0529599999999997
     3   7      16.192900000000002                 3.09552      5.7095599999999997
     4   2      16.610800000000001                 4.33819      5.3309100000000003
     5   7      17.669799999999999      4.6169599999999997      4.7755599999999996
     6   7      15.667400000000001      5.2593300000000003      5.4995000000000003
     7   4      14.245900000000001      5.0650700000000004      7.1252800000000001
     8   4      13.647500000000001      4.9544300000000003      5.3835800000000003
     9   4      14.237399999999999      2.6827999999999999      5.2182399999999998
    10   4      14.679500000000001      2.6828599999999998      6.9967300000000003
    11   2                 3.36632                 12.8024      23.267600000000002
    12   2      3.6775199999999999      13.989000000000001                  24.192
    13   7      3.2883499999999999                 13.5448      25.495899999999999
    14   2      3.2942800000000001      12.116400000000001      25.473500000000001
    15   7      3.2229800000000002                  11.289                 26.3964
    16   7                  3.2883      11.626899999999999      24.193000000000001
    17   4      4.1266600000000002                 12.7127                 22.5169
    18   4      2.4196200000000001      12.877000000000001      22.763100000000001
    19   4      3.0827499999999999      14.823600000000001                 23.9191
    20   4      4.7368600000000001                  14.254                 24.2545
    21   2      2.8544700000000001      3.5291800000000002      16.275099999999998
    22   2      4.0025700000000004      2.5651700000000002      15.851599999999999
    23   7      4.3227500000000001      3.0685699999999998                  14.554
    24   2      3.3205300000000002                 3.72993      13.967599999999999
    25   7      3.3448500000000001      4.2060300000000002      12.847799999999999
    26   7      2.3588399999999998      4.1122899999999998                 14.9505
    27   4                 3.12371      4.5032100000000002      16.726500000000001
    28   4      2.0409099999999998      2.9588299999999998      16.619800000000001
    29   4      3.5589200000000001                 1.54033      15.711499999999999
    30   4      5.0261300000000002                 2.65971                 16.4193
    31   2                 11.1515   -0.085284799999999994    -0.84939100000000001
    32   2                 10.0236     0.63508299999999995     -1.6468499999999999
    33   7                 10.5181      2.0172400000000001     -1.7577199999999999
    34   2      11.517799999999999      2.1941000000000002    -0.76024199999999997
    35   7      12.119999999999999      3.2295500000000001    -0.60196499999999997
    36   7      11.704800000000001      1.0346599999999999   -0.022711200000000001
    37   4                 11.8613    -0.61016099999999995     -1.4903599999999999
    38   4      10.647600000000001    -0.84249700000000005    -0.24484500000000001
    39   4      9.0653000000000006     0.50495500000000004                -1.17286
    40   4      9.9162199999999991     0.24294499999999999     -2.6792799999999999
    41   2      8.7317099999999996                 6.43621      13.884600000000001
    42   2      7.9674800000000001      7.6648500000000004                 14.4931
    43   7      6.9747000000000003                 7.04596                 15.3728
    44   2      7.2923499999999999      5.7025100000000002      15.495799999999999
    45   7      6.8345099999999999                 4.95505      16.316800000000001
    46   7      8.1730499999999999      5.2856800000000002      14.589499999999999
    47   4      9.7937600000000007      6.4490100000000004      14.220499999999999
    48   4      8.5986200000000004      6.3621999999999996                 12.7407
    49   4      7.3931100000000001      8.2823799999999999                  13.772
    50   4      8.6840100000000007      8.2095300000000009      15.164999999999999
    51   2                 11.6342                 1.43584      8.6728400000000008
    52   2      11.292199999999999      2.8023699999999998      8.0614899999999992
    53   7      9.9871700000000008      2.4419400000000002      7.3342400000000003
    54   2      9.6768199999999993                 1.12009      7.3888600000000002
    55   7      8.6175599999999992     0.63802300000000001      7.0206299999999997
    56   7      10.746700000000001     0.45634400000000003      7.9971100000000002
    57   4      11.378299999999999      1.3405899999999999      9.7282100000000007
    58   4      12.681800000000001      1.0959000000000001      8.5610400000000002
    59   4                 11.9726      3.1916600000000002      7.3430799999999996
    60   4      11.108000000000001      3.4610400000000001      8.8716200000000001
    61   2     -11.346399999999999                -7.94808      9.5943500000000004
    62   2     -11.758100000000001     -7.7611999999999997      8.1386400000000005
    63   7     -10.798400000000001     -8.5044299999999993      7.3787000000000003
    64   2     -9.8904999999999994     -9.0521999999999991      8.2300199999999997
    65   7     -8.9913600000000002     -9.7666599999999999      7.9041399999999999
    66   7     -10.104900000000001     -8.6402199999999993      9.4971899999999998
    67   4                -11.9246     -8.6323600000000003      10.166399999999999
    68   4                 -11.214     -6.9964399999999998                 10.0946
    69   4                -11.6631     -6.8003499999999999      7.7940699999999996
    70   4                -12.7483     -8.2108000000000008      8.0235699999999994
    71   2      11.616199999999999      25.291399999999999     -7.8460099999999997
    72   2      12.149800000000001      24.593900000000001     -6.6235900000000001
    73   7                 12.8537                 23.3857     -7.1698399999999998
    74   2                 12.3888      23.200099999999999     -8.4293999999999993
    75   7                 12.7529      22.217199999999998     -9.1174099999999996
    76   7                 11.4811                 24.1372     -8.7662600000000008
    77   4                 12.3081      26.028700000000001     -8.2495399999999997
    78   4      10.656700000000001      25.752199999999998     -7.7471100000000002
    79   4      11.427300000000001                 24.2605                -5.89534
    80   4                 12.9269      25.107199999999999     -6.0533999999999999
    81   2      6.4194300000000002      14.627800000000001                 6.02841
    82   2      5.0022900000000003                 15.1716      6.4728199999999996
    83   7      4.7400000000000002      14.546099999999999      7.7453799999999999
    84   2      5.8631000000000002                 13.8725      8.1165699999999994
    85   7      5.9396800000000001      13.210000000000001      9.1274599999999992
    86   7      6.7847400000000002      13.852399999999999      7.1321000000000003
    87   4      7.1092000000000004      15.498799999999999      5.8828699999999996
    88   4      6.6387799999999997      13.905200000000001      5.1498499999999998
    89   4      4.1288200000000002                 14.9533      5.8322200000000004
    90   4      5.0276300000000003      16.273499999999999                 6.59633
    91   2    -0.75031599999999998                 11.2258      4.2606299999999999
    92   2    -0.33989599999999998                 12.6736      4.2806100000000002
    93   7                0.142849                 12.8918      2.8780199999999998
    94   2               0.0208338                 11.7963      2.0975700000000002
    95   7                 0.39298                 11.6008     0.94654300000000002
    96   7    -0.56672500000000003                 10.8079      2.8182200000000002
    97   4                -1.83161                 11.1326      4.4702200000000003
    98   4               -0.232955      10.490500000000001      4.8928799999999999
    99   4     0.53799799999999998                 12.9087                 4.88218
   100   4     -1.1811799999999999                   13.33      4.4064899999999998
   101   2     0.93980699999999995                 7.50265      7.2968999999999999
   102   2     0.40377000000000002      8.0365000000000002      5.9457199999999997
   103   7    -0.44350000000000001                 9.12805      6.4642400000000002
   104   2    -0.78512000000000004      9.0207499999999996                 7.80063
   105   7                -1.53498                 9.84497      8.3251000000000008
   106   7   -0.018672899999999999      8.0008999999999997      8.3499999999999996
   107   4      1.9551799999999999      7.8416300000000003      7.4702200000000003
   108   4     0.97904500000000005                 6.39032                 7.36557
   109   4    -0.22433600000000001      7.4016000000000002      5.2971000000000004
   110   4      1.2074400000000001      8.4184699999999992      5.3163200000000002
   111   2     -6.5707000000000004                -1.72044                -1.99102
   112   2     -5.1176700000000004                 -2.2117                 -2.2582
   113   7     -5.2371699999999999     -3.6246200000000002                -2.61084
   114   2     -6.6016599999999999     -3.9593400000000001     -2.6534599999999999
   115   7     -7.0766200000000001     -5.0246399999999998     -2.9920499999999999
   116   7     -7.3895900000000001     -2.9323899999999998     -2.3285999999999998
   117   4     -6.8572899999999999    -0.97566799999999998     -2.7175600000000002
   118   4     -6.7658399999999999     -1.3708100000000001    -0.94417799999999996
   119   4     -4.4097900000000001     -2.1360199999999998                -1.42187
   120   4     -4.6197299999999997     -1.7587699999999999     -3.1034199999999998
   121   2      21.697199999999999      16.150500000000001      4.0840800000000002
   122   2                 22.8474                 15.8466      5.0227399999999998
   123   7                 23.9604      16.789100000000001      4.5955199999999996
   124   2                 23.3171      17.830500000000001      3.9085899999999998
   125   7                 23.6982                 18.9038                 3.53125
   126   7      21.970199999999998      17.508500000000002      3.7922400000000001
   127   4                 20.7499                 16.0809      4.6932099999999997
   128   4                 21.6281      15.598100000000001      3.1722399999999999
   129   4      23.372499999999999                 14.9374      4.9126899999999996
   130   4      22.637899999999998                 16.0989      6.0736400000000001
   131   2                 11.1616      19.109000000000002                 15.4184
   132   2      11.601599999999999      18.699999999999999      16.754000000000001
   133   7      13.135400000000001                 18.4376                 16.4617
   134   2                 13.0998      17.830200000000001      15.295299999999999
   135   7      14.008100000000001      17.139700000000001                 14.8279
   136   7      11.904199999999999                 17.9558                 14.6958
   137   4      11.535600000000001      20.077400000000001                 15.0519
   138   4      10.119300000000001                  18.942                 15.1945
   139   4                 11.3041      17.679400000000001                 17.0688
   140   4      11.553900000000001      19.470600000000001                 17.5366
   141   2                 23.9773      25.563199999999998      4.9707800000000004
   142   2      23.671099999999999      25.380700000000001      6.4399300000000004
   143   7      22.187799999999999      25.089700000000001      6.4419500000000003
   144   2      21.721299999999999                 25.5852      5.2412599999999996
   145   7      20.520499999999998      25.676100000000002      5.0177800000000001
   146   7      22.697399999999998      26.069600000000001      4.5091099999999997
   147   4      24.095700000000001      24.583500000000001      4.4807300000000003
   148   4                 24.7653                 26.3293      4.7012499999999999
   149   4      23.852799999999998                 26.3035      7.0579900000000002
   150   4                 24.0977      24.430299999999999      6.8554300000000001
   151   2     -4.2673199999999998      16.315200000000001     -5.2443400000000002
   152   2     -3.4876800000000001      15.836499999999999     -6.4894699999999998
   153   7     -3.4340899999999999      16.988199999999999     -7.3460799999999997
   154   2     -3.5188100000000002      18.074300000000001     -6.4517899999999999
   155   7     -3.2677399999999999      19.209299999999999                -6.82714
   156   7     -3.8663400000000001                 17.6706     -5.2141599999999997
   157   4     -3.9902000000000002                 15.7667     -4.2546900000000001
   158   4                -5.38903      16.270600000000002     -5.3556600000000003
   159   4     -4.0640200000000002                 15.0594     -7.0627000000000004
   160   4                -2.46448                 15.6511     -6.1824399999999997
   161   2               -0.367419                 12.1416                  13.571
   162   2      1.0784800000000001      11.733000000000001      13.427199999999999
   163   7                 1.01102                 10.3073      12.702299999999999
   164   2               -0.218724                 10.2378      12.170500000000001
   165   7    -0.63421799999999995      9.3902999999999999                 11.4171
   166   7                -1.00745      11.266299999999999      12.574400000000001
   167   4    -0.41100500000000001      13.220700000000001                 13.2995
   168   4    -0.79891599999999996      11.922000000000001                 14.5845
   169   4      1.5179499999999999      11.565899999999999                 14.4101
   170   4      1.6441699999999999                 12.3642                 12.7338
   171   2                 20.5289                 25.2836      23.099299999999999
   172   2                 19.8262      24.660900000000002      21.859999999999999
   173   7      18.667899999999999                 24.0124      22.561199999999999
   174   2                 18.7394                 24.1188      23.886299999999999
   175   7      18.042000000000002      23.689499999999999                 24.7654
   176   7      19.901700000000002      24.742799999999999                 24.2516
   177   4      20.552800000000001      26.333400000000001      23.150500000000001
   178   4      21.563300000000002      24.880700000000001      23.082000000000001
   179   4      20.357900000000001      23.831199999999999      21.313199999999998
   180   4      19.518599999999999      25.389900000000001      21.130099999999999
   181   2                 16.3429      11.057600000000001                 13.9101
   182   2      17.601199999999999                 11.8087      14.088699999999999
   183   7                 17.2437      13.079000000000001                  13.327
   184   2                 15.8858                 13.1722                 13.2104
   185   7                  15.278      14.137600000000001                 12.7851
   186   7                 15.2958      12.055300000000001                 13.7324
   187   4                 16.1004      10.491899999999999                 14.7986
   188   4      16.358499999999999      10.393599999999999                 12.9834
   189   4                 18.4253                 11.3437      13.526199999999999
   190   4      17.905200000000001                 12.1319                 15.0716
   191   2                 16.4419                 24.6677      19.635100000000001
   192   2      16.152200000000001                 25.8018      18.663900000000002
   193   7                 14.9033                 25.3932      17.957000000000001
   194   2                 14.4292      24.222899999999999      18.591699999999999
   195   7                 13.3498      23.671500000000002      18.307099999999998
   196   7                 15.2485      23.835799999999999      19.636399999999998
   197   4      16.585699999999999      25.051200000000001      20.605599999999999
   198   4                 17.3002      24.106000000000002                 19.3308
   199   4                 16.9816      25.963100000000001                 17.8521
   200   4      15.927099999999999      26.682700000000001      19.156700000000001
   201   2                 14.9392                 14.7075                 21.6037
   202   2                 16.3398                 15.3116      21.317900000000002
   203   7                 16.8809      14.256500000000001      20.310500000000001
   204   2                 15.9953                 13.3935                 19.9407
   205   7                  15.956                 12.4512      19.205200000000001
   206   7      14.697100000000001                 13.7142      20.509699999999999
   207   4                 14.1983      15.491400000000001      21.446300000000001
   208   4                 14.8871      14.228199999999999      22.551200000000001
   209   4      16.936800000000002                  15.266                 22.2133
   210   4                 16.3477      16.253299999999999      20.770399999999999
   211   2      20.688199999999998                 14.9815      18.964400000000001
   212   2      20.369800000000001                 13.9955                 20.1052
   213   7      19.418199999999999                  13.028      19.530000000000001
   214   2                 19.4878                 13.1982                 18.1584
   215   7                 18.8689      12.473599999999999                 17.4451
   216   7                 20.4375      14.145099999999999      17.807300000000001
   217   4      21.657299999999999                 15.5786      19.032299999999999
   218   4                 19.8507                 15.7537      19.003900000000002
   219   4                 19.8232      14.557700000000001      20.887699999999999
   220   4      21.123000000000001                  13.427      20.588699999999999
   221   2     -4.2746399999999998                  18.503                 5.27156
   222   2     -3.3749500000000001                  18.712      4.1136799999999996
   223   7     -2.7780499999999999      19.994700000000002      4.4419199999999996
   224   2     -3.6269200000000001      20.614100000000001      5.3704099999999997
   225   7     -3.5540699999999998                 21.7774      5.6913499999999999
   226   7     -4.4269100000000003                 19.7303      5.9184799999999997
   227   4     -3.8397999999999999      17.714099999999998      5.9544800000000002
   228   4     -5.2037399999999998      18.120699999999999      4.9399199999999999
   229   4     -3.8803000000000001      18.752400000000002      3.1724399999999999
   230   4     -2.6847699999999999                 17.8462      4.0464099999999998
   231   2                  11.009                 17.8947                 21.1006
   232   2      9.8765000000000001      17.594100000000001      22.032299999999999
   233   7                 9.73001      16.170000000000002                 22.0199
   234   2                 10.5776      15.675000000000001      21.015499999999999
   235   7      10.610900000000001                 14.5093      20.711400000000001
   236   7                 11.3589      16.609999999999999      20.536300000000001
   237   4                 11.9292      18.280999999999999                 21.5627
   238   4                  10.661      18.580200000000001      20.330500000000001
   239   4      8.9686800000000009                 17.9709      21.557600000000001
   240   4                 10.1166      17.915500000000002                 23.0397
   241   2      5.5243599999999997      21.816199999999998                 20.4575
   242   2                 6.19076      22.701599999999999      19.355499999999999
   243   7      5.0805499999999997                 23.5733      18.891100000000002
   244   2      4.0112199999999998                 23.4008      19.676100000000002
   245   7                 2.99153      24.085799999999999      19.634599999999999
   246   7      4.1220600000000003      22.329799999999999      20.497399999999999
   247   4      6.0514099999999997                 21.8506      21.436900000000001
   248   4      5.5236900000000002      20.735199999999999      20.178599999999999
   249   4      6.5358499999999999      22.210999999999999      18.492699999999999
   250   4      6.9407699999999997      23.407499999999999      19.733799999999999
   251   2                 19.2303                 19.3794                 1.25074
   252   2      19.546900000000001                 17.8657      1.4332100000000001
   253   7      19.633900000000001      17.441500000000001    0.046728499999999999
   254   2      19.883199999999999      18.526199999999999    -0.70140000000000002
   255   7                 20.1632      18.435300000000002     -1.8768400000000001
   256   7      19.709399999999999      19.656099999999999   -0.024818199999999999
   257   4      19.536899999999999                 20.0061      2.1124399999999999
   258   4                  18.102      19.577100000000002                 1.11622
   259   4                 18.7088      17.395199999999999      1.8577600000000001
   260   4      20.468900000000001      17.606000000000002      1.9345699999999999
   261   2      3.2421700000000002                 12.8886     -4.2676499999999997
   262   2      2.1026500000000001                 13.3688     -3.3109700000000002
   263   7                   2.157                 12.3386     -2.2103899999999999
   264   2      3.2781699999999998      11.604699999999999     -2.4016899999999999
   265   7                 3.73461      10.798400000000001     -1.6075299999999999
   266   7      4.0023999999999997                 11.9255     -3.5145900000000001
   267   4      4.0013800000000002                 13.6319     -4.6216900000000001
   268   4      2.9400300000000001                 12.4293     -5.1914499999999997
   269   4                 1.10741                 13.1313                -3.80497
   270   4      2.2833899999999998      14.344200000000001                -2.92747
   271   2      6.2754099999999999                 10.0182      9.3070599999999999
   272   2      7.6654499999999999      9.5258000000000003      9.7031799999999997
   273   7      7.4750500000000004      8.7479899999999997                  10.898
   274   2      6.1236800000000002      8.7405200000000001                 11.2051
   275   7      5.6759000000000004      8.0871899999999997                 12.1523
   276   7      5.4156700000000004      9.5715599999999998                 10.4481
   277   4      5.9780300000000004      9.4978999999999996      8.3570100000000007
   278   4                 6.12765                 11.1616      9.1660400000000006
   279   4      8.3743400000000001      10.207100000000001      10.032299999999999
   280   4      8.1781199999999998      8.8882300000000001      8.9494299999999996
   281   2      8.5082699999999996      3.4068200000000002      12.040699999999999
   282   2      6.9993400000000001      3.6564299999999998      12.280900000000001
   283   7      6.3339100000000004      3.0633599999999999      11.075900000000001
   284   2      7.2670300000000001      2.5114000000000001                  10.273
   285   7      7.0052000000000003      1.9356500000000001      9.2347999999999999
   286   7      8.5791799999999991      2.6066099999999999      10.847099999999999
   287   4      9.0407700000000002      2.7552599999999998                 12.7188
   288   4      9.1187900000000006      4.2931800000000004                 12.0059
   289   4      6.7497400000000001      4.7239000000000004                  12.266
   290   4      6.5959099999999999      3.2490899999999998                 13.2498
   291   2      15.556800000000001      2.4965600000000001      10.890599999999999
   292   2      15.109999999999999      2.8475700000000002      9.4900300000000009
   293   7      14.282299999999999      4.0388200000000003      9.6222399999999997
   294   2      14.571300000000001      4.6957700000000004                 10.8482
   295   7      14.255000000000001      5.7373900000000004      11.337300000000001
   296   7      15.411199999999999      3.8264800000000001      11.551600000000001
   297   4      16.665800000000001                 2.30192                 10.9443
   298   4                 14.9672      1.7658400000000001                 11.4991
   299   4                 14.3695      2.1795599999999999      8.9713200000000004
   300   4      15.900399999999999                 3.13096      8.7627699999999997
   301   2                 18.4375      8.4689399999999999      3.6660699999999999
   302   2      17.160699999999999      9.1088500000000003      4.4946099999999998
   303   7                 17.3703      8.7132500000000004      5.8271699999999997
   304   2      18.325900000000001      7.7341499999999996      5.8978299999999999
   305   7                 18.4298      7.0487599999999997      6.8851399999999998
   306   7      18.993300000000001      7.5504300000000004      4.7167500000000002
   307   4      19.073899999999998      9.2666599999999999      3.4304000000000001
   308   4      18.281300000000002      7.8211199999999996                 2.77203
   309   4      16.195599999999999      8.6727299999999996      4.1934300000000002
   310   4                 17.1038      10.207599999999999                 4.38795
   311   2    -0.75121300000000002      17.996300000000002      13.360200000000001
   312   2     0.64446899999999996      18.697900000000001                 13.5852
   313   7                 1.54392                 17.5443                 13.8454
   314   2     0.77024199999999998      16.398700000000002      14.063499999999999
   315   7                 1.21749                 15.3294                 14.3954
   316   7    -0.58871099999999998      16.711400000000001      14.063800000000001
   317   4    -0.98514299999999999                 17.9131      12.309100000000001
   318   4                 -1.5327                 18.5075                 13.9206
   319   4     0.68203899999999995                 19.3569      14.435600000000001
   320   4                 1.01681      19.160599999999999                 12.6357
   321   2      12.580500000000001     -8.4096299999999999      17.085100000000001
   322   2      13.789999999999999     -7.6301899999999998      16.545100000000001
   323   7      14.870100000000001     -8.6307399999999994                 16.5913
   324   2      14.412800000000001     -9.8320900000000009      16.936499999999999
   325   7      15.104200000000001                 -10.817                 16.8843
   326   7      13.116899999999999     -9.7881199999999993      17.316400000000002
   327   4                 11.8172     -8.5300600000000006                 16.3276
   328   4                 12.1386     -8.1040600000000005                 18.0093
   329   4      14.032500000000001     -6.8172300000000003                 17.1525
   330   4                 13.5938                -7.37155      15.493499999999999
   331   2      15.578200000000001      21.110299999999999                 15.3276
   332   2      16.257300000000001      21.660299999999999                 14.0319
   333   7      17.003799999999998                 22.8066      14.563800000000001
   334   2                 17.0307      22.795999999999999                 15.8993
   335   7      17.601299999999998                  23.625      16.584499999999998
   336   7      16.458100000000002      21.650099999999998      16.329599999999999
   337   4      15.570600000000001                 20.0321                 15.2927
   338   4      14.552899999999999      21.472899999999999                 15.4964
   339   4      15.585699999999999      22.115400000000001      13.300000000000001
   340   4      16.969200000000001                 20.9038      13.537699999999999
   341   2      19.915700000000001    -0.14857899999999999      19.093399999999999
   342   2      19.961400000000001    -0.50568299999999999      17.576599999999999
   343   7      20.253599999999999     0.74018799999999996      16.870100000000001
   344   2      20.503299999999999      1.7243999999999999      17.868400000000001
   345   7      21.023599999999998      2.8174299999999999      17.749400000000001
   346   7      20.071100000000001                 1.30976      19.064699999999998
   347   4      20.801400000000001    -0.53404600000000002      19.561699999999998
   348   4      19.078399999999998    -0.45705600000000002      19.644100000000002
   349   4      19.001999999999999    -0.80082500000000001                 17.1065
   350   4                 20.6721                -1.26685      17.474399999999999
   351   2      6.4780100000000003                 10.2958      5.0778100000000004
   352   2      6.8707200000000004      9.0894899999999996      4.2727000000000004
   353   7      8.1124299999999998      8.6769499999999997      4.8050899999999999
   354   2      8.2262799999999991      9.1762300000000003      6.0015000000000001
   355   7      9.0232399999999995                 8.80307      6.8802700000000003
   356   7      7.3482500000000002                 10.0939      6.2620899999999997
   357   4      5.4352600000000004                 10.2882      5.3190900000000001
   358   4      6.8758499999999998                 11.1976      4.6040400000000004
   359   4      7.1110800000000003      9.3270499999999998      3.2310300000000001