(written by ASE)

888 atoms
9 atom types

0.0      21.553999999999998  xlo xhi
0.0      21.553999999999998  ylo yhi
0.0                  21.544  zlo zhi

Atoms # atomic

     1   2     -34.296599999999998     -12.517799999999999      20.913399999999999
     2   4     -35.093899999999998     -12.321099999999999      21.664000000000001
     3   4     -34.029800000000002     -13.582700000000001      20.899699999999999
     4   7     -33.087899999999998                -11.8184      21.523700000000002
     5   2     -32.333799999999997     -11.343299999999999      20.528300000000002
     6   7                -31.1873     -10.972799999999999      20.641100000000002
     7   7     -33.018300000000004     -11.226900000000001      19.392700000000001
     8   2     -34.323700000000002                -11.7896                 19.5776
     9   4     -34.603000000000002                -12.2684                 18.6433
    10   4     -34.996400000000001     -10.932700000000001                 19.6205
    11   2     -25.503799999999998     -6.5988899999999999                 5.86775
    12   4     -24.658899999999999     -7.2551300000000003      6.0226100000000002
    13   4     -25.342500000000001                 15.7186                  6.6307
    14   7                -26.7117     -7.4359200000000003                 6.27684
    15   2     -27.680900000000001     -7.2795399999999999      5.3417399999999997
    16   7                -28.7578     -7.8826799999999997                 5.37296
    17   7     -27.269100000000002                -6.66404      4.2284600000000001
    18   2     -25.957699999999999     -6.1093500000000001      4.4307299999999996
    19   4     -25.951599999999999     -4.9910100000000002      4.1839000000000004
    20   4     -25.354199999999999     -6.5366999999999997      3.5794000000000001
    21   2                -25.1355     -1.7647600000000001      3.1397900000000001
    22   4                -25.0181     -2.8027600000000001                 3.50542
    23   4     -24.139399999999998                -1.26406      3.2575099999999999
    24   7     -25.981000000000002     -1.1780600000000001      4.1631900000000002
    25   2                -26.7911               -0.236206      3.5908199999999999
    26   7     -27.457599999999999     0.56543299999999996      4.2493800000000004
    27   7                -26.8795    -0.44304399999999999      2.2315800000000001
    28   2     -25.848400000000002                -1.40063      1.8064499999999999
    29   4                 -25.157    -0.87116300000000002                 1.17442
    30   4     -26.374500000000001     -2.3421599999999998      1.4485699999999999
    31   2     -17.563800000000001                 2.72119     -2.0321099999999999
    32   4     -18.607199999999999                 2.47221     -1.9575100000000001
    33   4                -17.2332                 3.23549                -1.09422
    34   7                 -17.355      3.5651899999999999                -3.17747
    35   2     -16.192499999999999      3.2402500000000001     -3.7301700000000002
    36   7     -15.647600000000001      3.8606099999999999     -4.6034499999999996
    37   7     -15.631600000000001      2.1593900000000001     -3.1403400000000001
    38   2                -16.6373                 1.52094     -2.2817400000000001
    39   4     -16.118200000000002     0.99577199999999999     -1.4589399999999999
    40   4     -17.095199999999998     0.84861699999999995                 -3.0259
    41   2     -21.154900000000001     -6.0365599999999997                 17.5306
    42   4                -20.8368     -5.3588699999999996                 16.7073
    43   4     -21.041699999999999     -7.0819700000000001      17.134399999999999
    44   7     -22.644400000000001     -5.9365100000000002      17.668500000000002
    45   2     -23.021100000000001     -5.5988100000000003      18.978899999999999
    46   7                -24.1419     -5.3775199999999996                 19.3323
    47   7                -21.8644     -5.4727199999999998      19.689599999999999
    48   2     -20.713899999999999                -5.54617      18.853200000000001
    49   4     -19.983799999999999                -6.24444      19.302099999999999
    50   4     -20.287400000000002     -4.4555600000000002      18.826799999999999
    51   2     -17.509499999999999      11.426600000000001                  14.116
    52   4     -16.938800000000001                 10.9877                 14.9964
    53   4     -17.878699999999998                 12.3847                 14.2462
    54   7     -18.642299999999999     -11.146699999999999      14.152100000000001
    55   2     -18.176400000000001                -12.2494      13.476699999999999
    56   7     -18.632100000000001     -13.380699999999999      13.546099999999999
    57   7     -17.160299999999999      9.6153600000000008                 12.6769
    58   2     -16.904299999999999      11.080299999999999                 12.7369
    59   4                -17.4072      11.564299999999999      11.855499999999999
    60   4                -15.8713                 11.3513                 12.7079
    61   2     -18.472100000000001     -2.3813399999999998      18.041499999999999
    62   4                -18.9375     -3.1128200000000001      17.370000000000001
    63   4     -17.405100000000001     -2.4955500000000002      17.831299999999999
    64   7     -18.716799999999999     -2.7208800000000002                 19.5015
    65   2                -18.7898                -1.50705      20.246200000000002
    66   7     -18.678799999999999                -1.36897      21.436599999999999
    67   7     -18.984000000000002    -0.49526500000000001      19.353999999999999
    68   2     -18.895499999999998    -0.94522899999999999                 17.8825
    69   4     -18.022099999999998    -0.47094200000000003                  17.459
    70   4     -19.861599999999999    -0.88311099999999998      17.316199999999998
    71   2     -29.168900000000001      7.5646800000000001     -2.7343999999999999
    72   4     -29.361499999999999      8.5635700000000003     -2.3610899999999999
    73   4                -28.6129      7.4835099999999999     -3.6666699999999999
    74   7     -30.518999999999998      7.0956200000000003                -3.06359
    75   2     -30.851700000000001                -15.5219     -2.3532199999999999
    76   7                -31.9039     -16.217600000000001     -2.4453999999999998
    77   7     -29.861999999999998                 5.52006                -1.59154
    78   2                -28.7422      6.5213299999999998                -1.63791
    79   4                -27.8443      5.9747199999999996     -2.0039199999999999
    80   4     -28.697700000000001                 6.91662    -0.61865400000000004
    81   2     -30.716200000000001     -12.365500000000001      9.6395400000000002
    82   4     -31.570499999999999                -12.7645      9.0299200000000006
    83   4     -30.936299999999999     -12.567600000000001      10.709099999999999
    84   7     -30.718599999999999                -10.9457      9.2740100000000005
    85   2     -29.490200000000002                 -10.487      9.2673199999999998
    86   7                -29.1493     -9.3386499999999995      9.1023499999999995
    87   7     -28.563600000000001                -11.4496      9.5312800000000006
    88   2     -29.292000000000002                -12.7376      9.2761899999999997
    89   4                -28.7608                -13.4191                 10.0267
    90   4     -29.016200000000001                -12.9069      8.2547200000000007
    91   2                -18.5015     -9.8600300000000001      22.008400000000002
    92   4     -18.385200000000001                 -10.263      20.978100000000001
    93   4     -18.902999999999999     -10.601900000000001      22.681999999999999
    94   7     -19.333600000000001     -8.6823999999999995                 22.0154
    95   2                -18.5626     -7.5678099999999997      22.117899999999999
    96   7                -18.9788     -6.4365600000000001                 21.9954
    97   7     -17.268699999999999                -7.91364                 22.4557
    98   2                -17.1873     -9.3706200000000006      22.638300000000001
    99   4                 -17.032     -9.4937400000000007      23.726500000000001
   100   4                -16.2514     -9.7265200000000007      22.133099999999999
   101   2                -18.0397     -4.3376599999999996      7.7291299999999996
   102   4     -17.055299999999999     -3.9834499999999999      8.0581600000000009
   103   4     -18.110499999999998     -4.9299900000000001      6.8589399999999996
   104   7     -18.905999999999999     -3.2003499999999998      7.6706099999999999
   105   2     -19.797999999999998     -3.2314799999999999      8.6790900000000004
   106   7     -20.474399999999999     -2.2392500000000002      8.9996100000000006
   107   7                -19.8597                 -4.4154      9.2494700000000005
   108   2     -18.657800000000002     -5.3140799999999997      8.9016199999999994
   109   4                 -19.061     -6.1932600000000004      8.3956700000000009
   110   4     -17.976600000000001     -5.6033099999999996      9.7716799999999999
   111   2     -26.219200000000001      6.0321899999999999     -5.2630299999999997
   112   4     -26.877500000000001      6.8555000000000001                 16.1831
   113   4     -26.620200000000001      5.2130999999999998     -4.7933000000000003
   114   7                -25.1114      6.5752499999999996     -4.4152800000000001
   115   2     -23.990500000000001      6.0436300000000003     -4.7774000000000001
   116   7     -22.961099999999998      6.2574300000000003     -4.1679700000000004
   117   7     -24.062999999999999                 5.43628     -5.9860699999999998
   118   2     -25.418700000000001      5.7100999999999997     -6.5455199999999998
   119   4                -25.7745      4.8028700000000004     -7.0700200000000004
   120   4     -25.392299999999999      6.5094399999999997      14.186400000000001
   121   2                -37.9283     -13.735900000000001                 22.3947
   122   4     -38.710700000000003     -14.405799999999999      22.846699999999998
   123   4     -37.372500000000002                -13.2941      23.220400000000001
   124   7     -38.571800000000003     -12.714600000000001                 21.4818
   125   2     -37.952599999999997                -12.6942      20.258199999999999
   126   7                 -38.064     -11.821099999999999      19.427499999999998
   127   7     -37.008600000000001     -13.641299999999999                 20.1496
   128   2                -37.0867     -14.528499999999999                 21.3843
   129   4     -36.031999999999996     -14.746600000000001      21.769400000000001
   130   4     -37.463500000000003                 -15.526      21.144100000000002
   131   2     -15.726800000000001     -7.8430799999999996      17.258800000000001
   132   4     -15.318099999999999     -6.9066000000000001      16.764600000000002
   133   4                -15.0443     -8.7523700000000009      17.210000000000001
   134   7     -16.981100000000001     -8.1445399999999992      16.500599999999999
   135   2     -17.937899999999999                 -8.5762      17.387799999999999
   136   7     -19.008500000000002     -9.0475399999999997      17.023199999999999
   137   7     -17.551400000000001     -8.3813399999999998      18.661999999999999
   138   2                -16.3431     -7.5945099999999996      18.713200000000001
   139   4     -15.684799999999999     -8.0774699999999999                 19.4023
   140   4                -16.4895     -6.5736600000000003      18.979800000000001
   141   2     -8.8744099999999992     -4.0059800000000001      4.8193900000000003
   142   4     -8.4132599999999993     -4.2463499999999996      3.8641899999999998
   143   4     -31.228000000000002     -3.2911600000000001                  4.7618
   144   7                -29.3172     -3.5686900000000001      5.7214700000000001
   145   2                -29.3371     -4.3000699999999998      6.9351799999999999
   146   7     -28.639600000000002     -4.1228600000000002      7.9283700000000001
   147   7     -8.6673899999999993     -5.2916800000000004      6.7999599999999996
   148   2     -9.4349500000000006     -5.2696399999999999      5.5421500000000004
   149   4                -10.4894     -5.1579100000000002      5.7094199999999997
   150   4     -9.2300599999999999     -6.2828400000000002      5.0544099999999998
   151   2     -26.058299999999999                -11.8858                 12.8612
   152   4     -25.547000000000001     -12.552899999999999                 12.1616
   153   4     -25.259599999999999                -11.2239      13.325100000000001
   154   7                 -26.631                -12.6099                 13.9901
   155   2     -27.721900000000002     -11.950699999999999                 14.4574
   156   7     -28.268000000000001                -12.2157      15.510199999999999
   157   7                -28.1038                -11.0114      13.584199999999999
   158   2     -27.250499999999999                -11.1128      12.350899999999999
   159   4     -26.923999999999999      11.440099999999999      11.994300000000001
   160   4                -27.7742      9.9620800000000003      11.530200000000001
   161   2                -36.1571     -4.2266899999999996      18.613600000000002
   162   4     -35.340899999999998     -5.0034200000000002      18.461200000000002
   163   4     -36.949199999999998     -4.2553799999999997                 17.9161
   164   7     -35.454000000000001     -2.8927499999999999      18.626999999999999
   165   2     -35.893099999999997     -2.1614100000000001      19.710699999999999
   166   7                -14.0442    -0.99881600000000004                 19.8795
   167   7     -36.765300000000003     -2.8426999999999998      20.481400000000001
   168   2     -36.737699999999997     -4.2323300000000001      20.111999999999998
   169   4     -37.773600000000002     -4.6660899999999996      20.244399999999999
   170   4     -36.036499999999997     -4.7512299999999996      20.779499999999999
   171   2     -11.999700000000001     -5.9409999999999998                 15.3642
   172   4                -12.7555     -6.3629699999999998                 16.0611
   173   4     -11.027799999999999     -5.8536000000000001      15.802199999999999
   174   7     -12.430099999999999     -4.5847300000000004      15.140499999999999
   175   2                -13.0695     -4.5266700000000002                  13.866
   176   7                -13.5723     -3.5370200000000001      13.420500000000001
   177   7                -13.0977                -5.76105                 13.2746
   178   2                -12.1075     -6.5675699999999999      13.963699999999999
   179   4     -11.155200000000001     -6.7024800000000004      13.332100000000001
   180   4     -12.558999999999999     -7.5879899999999996      14.020200000000001
   181   2     -21.852699999999999                -11.7288      3.9910800000000002
   182   4     -21.523399999999999                 10.4072      3.1095199999999998
   183   4     -22.911000000000001     -11.549799999999999                 4.14093
   184   7                 -21.105      10.130599999999999      5.2343599999999997
   185   2     -20.209199999999999                -12.4315      5.4764099999999996
   186   7     -19.335999999999999                -12.3751      6.2993199999999998
   187   7                -20.4208                -13.5852      4.6969799999999999
   188   2                 -21.512     -13.236800000000001      3.7953199999999998
   189   4                  -22.41     -13.892799999999999      4.1267899999999997
   190   4     -21.222000000000001     -13.576700000000001      24.357600000000001
   191   2     -24.190799999999999               -0.350823      18.524799999999999
   192   4     -23.379100000000001     0.14694099999999999      19.010200000000001
   193   4     -24.872299999999999                0.208366      17.874600000000001
   194   7     -25.179400000000001    -0.69271000000000005                 19.6492
   195   2                -25.5672     -1.9623299999999999      19.447299999999998
   196   7     -26.467300000000002     -2.5966200000000002      20.047899999999998
   197   7     -24.867699999999999     -2.5323099999999998                 18.3827
   198   2                -23.7986                -1.74769      17.861999999999998
   199   4                -23.9343     -1.7918000000000001                  16.808
   200   4     -22.832899999999999     -2.2048399999999999      18.184999999999999
   201   2                -21.8231     -3.2883399999999998      22.302499999999998
   202   4     -21.502300000000002     -2.4309599999999998                 22.9756
   203   4                -21.3095     -3.2895300000000001      21.326699999999999
   204   7                 -23.294     -3.1798999999999999      22.170999999999999
   205   2     -23.797000000000001     -4.4968899999999996      22.328600000000002
   206   7                -24.9956     -4.8379500000000002      22.146799999999999
   207   7     -22.839600000000001     -5.3654900000000003      1.1752499999999999
   208   2     -21.664999999999999     -4.6320699999999997      1.4676199999999999
   209   4                -20.7392     -5.1512900000000004      1.0434399999999999
   210   4     -21.552900000000001     -4.5368399999999998                 2.58683
   211   2     -9.8614200000000007     -7.3182499999999999                 19.9879
   212   4     -9.0780999999999992     -7.7724200000000003      19.384699999999999
   213   4     -9.6600099999999998     -7.4031799999999999                 21.0655
   214   7                -11.0891     -8.0530600000000003      19.926200000000001
   215   2                -12.0344     -7.1454300000000002      19.511600000000001
   216   7     -13.188000000000001     -7.4609500000000004                 19.3718
   217   7     -11.544600000000001     -5.9736500000000001     -2.4043899999999998
   218   2                -10.0962     -5.8497899999999996                -2.04061
   219   4                -31.4451     -5.0487900000000003     -1.3205100000000001
   220   4     -9.6701300000000003     -5.4504200000000003                -2.95505
   221   2     -22.240500000000001                 14.0961                 14.0497
   222   4     -22.140000000000001      15.143599999999999                  14.343
   223   4                -21.3184                 13.7263      13.525600000000001
   224   7     -23.274999999999999                 13.9999      13.062200000000001
   225   2                -24.3127      13.261799999999999                 13.5785
   226   7     -25.322600000000001      13.056900000000001                 12.9442
   227   7     -24.059899999999999                 12.7819      14.816700000000001
   228   2     -22.667999999999999      13.190799999999999      15.232900000000001
   229   4     -21.975899999999999                 12.3256                 15.2639
   230   4     -22.689800000000002                 13.7494      16.170400000000001
   231   2     -36.337499999999999                 7.28376      17.281400000000001
   232   4     -36.190100000000001      8.2351299999999998      17.787199999999999
   233   4     -36.235500000000002      6.3897700000000004      17.938099999999999
   234   7     -35.404299999999999                 7.09457      16.134599999999999
   235   2     -36.089300000000001                 6.90944      15.002599999999999
   236   7     -13.955500000000001      6.6921799999999996                  13.939
   237   7     -37.462499999999999      7.1078900000000003      15.185600000000001
   238   2     -37.722999999999999      7.1994600000000002      16.648299999999999
   239   4     -38.270800000000001      6.2400399999999996                  16.866
   240   4     -38.331000000000003      8.1188000000000002      16.733899999999998
   241   2     -32.852200000000003                -9.10379      7.1491899999999999
   242   4     -32.419600000000003     -8.9920100000000005      8.1718499999999992
   243   4     -33.729599999999998     -8.4720700000000004      7.0646399999999998
   244   7     -33.206899999999997                -10.5036                 6.97628
   245   2     -32.125700000000002                -11.1137      6.1792600000000002
   246   7     -32.009599999999999                -12.3073      5.9305300000000001
   247   7     -31.147600000000001                -10.1472      5.9668200000000002
   248   2     -31.730499999999999     -8.8460000000000001      6.0625200000000001
   249   4     -32.217300000000002     -8.4786000000000001      5.1305699999999996
   250   4                -30.9391     -8.2114799999999999      6.4643800000000002
   251   2     -22.739699999999999     -7.7902100000000001      8.7267600000000005
   252   4     -22.244800000000001     -7.5059100000000001                 7.75441
   253   4     -22.552199999999999     -8.7977299999999996      9.1181800000000006
   254   7                -24.1907     -7.7538600000000004      8.5288299999999992
   255   2                -24.7637     -6.7403399999999998      9.3327399999999994
   256   7     -25.968699999999998     -6.4415100000000001      9.4625400000000006
   257   7                -23.7866     -6.0723200000000004      9.9639699999999998
   258   2     -22.468599999999999     -6.5962699999999996      9.6821599999999997
   259   4     -21.903300000000002     -6.8539099999999999      10.552300000000001
   260   4     -22.097100000000001     -5.7485099999999996      9.0483499999999992
   261   2                -25.5456      9.6954499999999992      17.461600000000001
   262   4     -25.492999999999999      9.1836000000000002      16.453399999999998
   263   4     -26.556899999999999      9.4939699999999991      17.881699999999999
   264   7                -25.3628      11.148300000000001      17.404599999999999
   265   2                -24.2547      11.504799999999999      18.119700000000002
   266   7                -24.0106                 12.6516      18.372599999999998
   267   7     -23.510100000000001      10.456200000000001      18.498200000000001
   268   2     -24.273700000000002      9.1959599999999995      18.305599999999998
   269   4                -24.5868      8.8268500000000003      19.303599999999999
   270   4     -23.622900000000001      8.5218500000000006      17.723099999999999
   271   2                -28.5746     -7.6883499999999998                 13.0799
   272   4     -28.945599999999999     -8.4459400000000002      12.422599999999999
   273   4     -27.992999999999999     -8.0832499999999996                 13.9541
   274   7                -29.7517     -7.0214600000000003                 13.6694
   275   2     -29.429200000000002     -5.7159800000000001                 13.9139
   276   7     -30.190100000000001     -5.0658599999999998      14.560700000000001
   277   7                -28.2652     -5.3460799999999997      13.419600000000001
   278   2     -27.839300000000001     -6.4642400000000002                 12.4946
   279   4     -26.761600000000001     -6.4515500000000001      12.463200000000001
   280   4     -28.209499999999998                 -6.3571      11.512600000000001
   281   2     -34.544199999999996      9.9125399999999999                 10.2479
   282   4     -34.125799999999998      10.694800000000001      9.5145700000000009
   283   4     -34.513199999999998      10.280799999999999                 11.2821
   284   7                -33.8538                -12.9247      10.008699999999999
   285   2     -34.720100000000002                -13.7155                   9.234
   286   7     -34.384700000000002     -14.784700000000001      8.8748799999999992
   287   7     -35.871699999999997     -13.130599999999999      8.9895899999999997
   288   2     -35.973399999999998      9.6564499999999995      9.7386999999999997
   289   4     -36.676099999999998                 9.42441      10.532299999999999
   290   4     -36.384300000000003      10.416700000000001      9.0459999999999994
   291   2     -26.399000000000001      6.6303799999999997      4.9219600000000003
   292   4                -26.8127      6.6289400000000001      5.9726400000000002
   293   4                -26.6858      7.6077300000000001      4.5220399999999996
   294   7     -27.047000000000001      5.5920899999999998      4.2753500000000004
   295   2                -26.2273      4.5915999999999997                 3.99152
   296   7     -26.403500000000001      3.4718599999999999      3.4745200000000001
   297   7     -24.990500000000001      4.8994499999999999      4.3875599999999997
   298   2                -24.8873                 6.29969      4.7481499999999999
   299   4     -24.508099999999999                 6.81229      3.8756599999999999
   300   4     -24.284500000000001      6.4620800000000003      5.7239000000000004
   301   2     -25.655000000000001      10.042999999999999      6.3512500000000003
   302   4     -26.484500000000001                 10.7141      6.1828399999999997
   303   4     -25.357199999999999      9.6709300000000002      5.3544200000000002
   304   7     -26.018000000000001      8.9431899999999995      7.2435099999999997
   305   2     -25.674900000000001      9.2895299999999992      8.5454100000000004
   306   7     -26.069199999999999      8.7621099999999998      9.5582499999999992
   307   7     -24.720700000000001      10.248200000000001      8.5335699999999992
   308   2     -24.511800000000001                 10.6883      7.1313300000000002
   309   4     -23.558499999999999                  10.307      6.8140599999999996
   310   4                -24.5351                 11.7608      7.0501199999999997
   311   2     -19.456299999999999     -11.171099999999999      10.607200000000001
   312   4                -20.0579     -12.025600000000001      10.988799999999999
   313   4     -18.433399999999999                -11.4574                 10.5342
   314   7     -19.740500000000001                -10.1058                 11.5122
   315   2                -19.8461     -8.9498300000000004                 10.8299
   316   7     -19.803000000000001     -7.7870299999999997                 11.2225
   317   7     -19.977900000000002     -9.2356499999999997      9.4351400000000005
   318   2     -20.107500000000002     -10.677099999999999      9.2390399999999993
   319   4                 -19.587                -10.9535      8.3699899999999996
   320   4                -21.1313                -10.8871      9.1435499999999994
   321   2     -20.434999999999999      4.8113700000000001     -5.6377199999999998
   322   4     -20.753799999999998      5.0705799999999996     -6.6175499999999996
   323   4     -20.238399999999999      5.6927099999999999                -5.02738
   324   7     -40.698799999999999      4.0519600000000002     -5.7365399999999998
   325   2     -40.892299999999999      2.7598099999999999     -5.4455099999999996
   326   7     -40.107300000000002      1.8627100000000001     -5.5808499999999999
   327   7     -42.186199999999999                 2.48529     -5.0099999999999998
   328   2     -42.926299999999998      3.7806600000000001     -4.9101600000000003
   329   4     -43.023600000000002      3.8342200000000002     -3.8361499999999999
   330   4     -43.936300000000003      3.6686700000000001     -5.2785900000000003
   331   2                -23.7942     0.90836600000000001      15.287000000000001
   332   4                -23.8629                 1.45573      16.204699999999999
   333   4                -24.7958     0.42405799999999999                 15.0373
   334   7     -22.767199999999999               -0.145373                  15.558
   335   2     -21.686599999999999    0.061987599999999997                 14.8157
   336   7                -20.6555    -0.66229000000000005                 14.8315
   337   7                -21.8186      1.1470100000000001                 14.0489
   338   2     -23.216699999999999      1.6950099999999999                 14.1068
   339   4     -23.697900000000001      1.4141900000000001                 13.1487
   340   4     -22.951599999999999      2.7794400000000001                 14.1411
   341   2     -28.969000000000001      2.6514600000000002      12.294700000000001
   342   4     -28.482299999999999      3.5811899999999999                 12.6487
   343   4     -29.033100000000001      2.6311200000000001                 11.1645
   344   7     -30.385200000000001      2.6053700000000002                 12.7515
   345   2     -30.533100000000001                 1.67719      13.735799999999999
   346   7     -31.567699999999999                 1.54454      14.376799999999999
   347   7     -29.455300000000001     0.90662500000000001                 13.8507
   348   2                -28.4344                 1.35667      12.961399999999999
   349   4                -28.3096     0.63793900000000003      12.215999999999999
   350   4     -27.526800000000001                 1.53833      13.511799999999999
   351   2                -23.9482     -8.5218799999999995     0.37676399999999999
   352   4     -23.459700000000002     -7.5733699999999997                0.296676
   353   4     -24.382300000000001     -8.7462999999999997    -0.58616599999999996
   354   7     -25.025099999999998     -8.4718999999999998      1.4386300000000001
   355   2                -24.9194     -9.6420399999999997      2.1441499999999998
   356   7     -25.580200000000001     -9.9587900000000005      3.0769500000000001
   357   7     -23.844799999999999     -10.438700000000001                 1.76136
   358   2     -23.000699999999998     -9.6095600000000001     0.95706899999999995
   359   4     -22.490500000000001                -10.2559     0.22014300000000001