(written by ASE)

915 atoms
9 atom types

0.0      21.712770568302616  xlo xhi
0.0      21.712770568302616  ylo yhi
0.0      21.712770568302616  zlo zhi

Atoms # atomic

     1   2      14.555199999999999                 6.50528      4.8099999999999996
     2   2                 13.8315      5.2012799999999997      4.6065800000000001
     3   7                 14.8887      4.2251099999999999      4.9435500000000001
     4   2                 16.0459      4.8356599999999998      4.6879900000000001
     5   7      17.091999999999999      4.2079000000000004      4.6806099999999997
     6   7                 15.9375      6.1422400000000001      4.4506100000000002
     7   4                  14.554                  7.0301      5.7944300000000002
     8   4                 14.0989      7.2015900000000004      4.0494700000000003
     9   4      13.655799999999999      4.9885799999999998      3.5627399999999998
    10   4                 12.9411      4.9963899999999999      5.2611299999999996
    11   2      2.6648900000000002      11.514900000000001      23.904199999999999
    12   2      3.3873799999999998                 12.4597      24.842400000000001
    13   7                 3.22994      11.750500000000001      26.115100000000002
    14   2      3.2401499999999999      10.397600000000001      25.810099999999998
    15   7      3.4746100000000002      9.5050699999999999      26.619499999999999
    16   7      2.9565000000000001                 10.2357      24.495799999999999
    17   4      3.0623900000000002                 11.6356      22.921900000000001
    18   4      1.5553699999999999      11.601800000000001      23.912099999999999
    19   4      2.9625599999999999      13.450200000000001                  24.785
    20   4      4.4852499999999997      12.558999999999999                 24.6081
    21   2      3.2584499999999998      2.6046800000000001                 16.3428
    22   2      4.5168400000000002      1.9638100000000001                 15.7826
    23   7      4.4981400000000002                 2.05985      14.315300000000001
    24   2                 3.36883      2.6111200000000001                 13.9954
    25   7      2.9669699999999999      2.9842900000000001                 12.8942
    26   7                 2.48577      2.8452999999999999      15.065799999999999
    27   4      3.3325999999999998      3.5939000000000001      16.865200000000002
    28   4                 2.63564      1.9249799999999999      16.935400000000001
    29   4      4.5707000000000004     0.79994299999999996      15.904400000000001
    30   4      5.5187299999999997      2.2361800000000001                 16.1187
    31   2      11.476900000000001               -0.188384                -1.74919
    32   2                 10.1617                0.673794     -1.8036799999999999
    33   7      10.741400000000001      1.9987999999999999                -1.71936
    34   2      12.038500000000001      1.9821299999999999                -1.55592
    35   7      12.752599999999999      3.0081500000000001                -1.42685
    36   7      12.529999999999999     0.77210800000000002     -1.5064299999999999
    37   4                 11.7281    -0.67025599999999996     -2.7263199999999999
    38   4                 11.4964    -0.99041900000000005                -1.01047
    39   4      9.5418500000000002     0.58186000000000004    -0.89907400000000004
    40   4      9.6414500000000007     0.57894599999999996     -2.7894600000000001
    41   2      7.9702500000000001      4.7517899999999997                 15.7593
    42   2      7.8428199999999997      6.1080500000000004      15.005800000000001
    43   7      6.4769800000000002      6.5763400000000001      15.371700000000001
    44   2      5.8445200000000002      5.5981500000000004      16.100300000000001
    45   7      4.7131800000000004      5.6345200000000002                 16.5457
    46   7                 6.65184      4.4743000000000004      16.165299999999998
    47   4      8.5401600000000002      5.0018599999999998                 16.6401
    48   4      8.4645799999999998      3.9386800000000002      15.191800000000001
    49   4      8.1175599999999992      6.1268099999999999                 13.8909
    50   4      8.5930099999999996      6.7793099999999997      15.424300000000001
    51   2                 11.0124                 1.25858                 7.40381
    52   2      10.548500000000001      2.4724200000000001      6.5373400000000004
    53   7      9.1207899999999995                 2.24526      6.3801300000000003
    54   2      8.7512600000000003      1.1949099999999999                  7.0762
    55   7      7.5817600000000001     0.81183399999999994      7.1003499999999997
    56   7      9.7508099999999995     0.71773799999999999      7.8164300000000004
    57   4                 11.5738      1.5710500000000001      8.3361199999999993
    58   4      11.631399999999999     0.52285000000000004      6.8353400000000004
    59   4                 10.9068      2.6029399999999998      5.5290299999999997
    60   4                 10.6714      3.5300099999999999      7.0551300000000001
    61   2     -13.442399999999999     -7.0490599999999999      9.4562799999999996
    62   2     -12.662000000000001     -6.9971300000000003      8.1664399999999997
    63   7                -11.3436     -7.6673200000000001      8.5403500000000001
    64   2     -11.406000000000001     -8.0650499999999994      9.7683199999999992
    65   7     -10.503299999999999     -8.5116300000000003                 10.4712
    66   7                -12.6662     -8.0694199999999991      10.277100000000001
    67   4                -14.4411     -7.4543999999999997      9.4152500000000003
    68   4                -13.5665                -6.04495      9.9938400000000005
    69   4                -12.4612     -6.0430400000000004      7.7335000000000003
    70   4                -13.0984     -7.4916499999999999      7.2578500000000004
    71   2      11.054399999999999      24.682500000000001                 -10.324
    72   2      12.019299999999999      24.753799999999998     -9.0910399999999996
    73   7                 13.2575                 24.2422                 -9.5587
    74   2      13.184100000000001      23.648399999999999                -10.7293
    75   7      14.045400000000001      23.020099999999999     -11.325100000000001
    76   7      11.897600000000001      23.863099999999999                -11.2759
    77   4                 10.7943      25.593800000000002                -10.8764
    78   4      10.192299999999999      24.063400000000001                -10.0807
    79   4      11.701000000000001      24.127400000000002                -8.27501
    80   4      12.129200000000001                 25.8124     -8.7034300000000009
    81   2      6.5975000000000001                 13.7082      4.9587399999999997
    82   2      6.7372800000000002      15.226699999999999      5.2417899999999999
    83   7      6.4481999999999999                 15.3027      6.6774699999999996
    84   2      5.7924600000000002                 14.1851      7.1024700000000003
    85   7      5.3887299999999998                 14.0139      8.2408900000000003
    86   7      5.6425599999999996                 13.3385      6.1023899999999998
    87   4      7.4550400000000003                 13.0685      5.0883399999999996
    88   4      6.0911900000000001                 13.5298                 4.02522
    89   4      5.8841999999999999                 15.7409      4.7576099999999997
    90   4      7.7059600000000001      15.760899999999999      5.0357700000000003
    91   2     -1.8470200000000001      14.561999999999999      2.7674500000000002
    92   2     -1.6860299999999999      14.991300000000001      1.3103800000000001
    93   7     -1.2875700000000001                 13.7286     0.66125699999999998
    94   2                -1.11202                 12.7782      1.6039000000000001
    95   7    -0.75006700000000004      11.613899999999999                 1.34788
    96   7     -1.4369700000000001                 13.2196                 2.84395
    97   4     -2.8649499999999999                 14.6412      3.1424400000000001
    98   4     -1.2585200000000001      15.153600000000001                 3.49573
    99   4    -0.86943700000000002                 15.7043      1.1929799999999999
   100   4                -2.65883                 15.3149     0.88768400000000003
   101   2      3.4764200000000001      7.4926599999999999      7.1251800000000003
   102   2      2.2563800000000001      6.9956300000000002      6.3075799999999997
   103   7      1.2078199999999999      7.7668699999999999      6.8730500000000001
   104   2                 1.57368      8.4214900000000004      7.9535600000000004
   105   7     0.68254599999999999      9.0516900000000007      8.5296000000000003
   106   7      2.8069700000000002      8.1865500000000004      8.3297699999999999
   107   4      4.0423200000000001      8.3228899999999992      6.7011000000000003
   108   4      4.1565399999999997      6.7771800000000004      7.4568000000000003
   109   4      2.0420600000000002      5.9199299999999999      6.3658700000000001
   110   4      2.3822299999999998      7.2575200000000004      5.2632700000000003
   111   2     -6.8126300000000004     -1.9845900000000001     -1.4231100000000001
   112   2                -5.47919     -2.3701599999999998     -1.9794799999999999
   113   7     -5.5454699999999999     -3.8267500000000001                -1.94234
   114   2     -6.7923600000000004                -4.16927     -2.0826699999999998
   115   7     -7.2974899999999998     -5.2090199999999998                -2.38103
   116   7     -7.5974300000000001     -3.1282399999999999     -1.7516499999999999
   117   4     -7.1678699999999997     -1.0823799999999999     -2.0111599999999998
   118   4                -6.88117     -1.7325699999999999               -0.359906
   119   4     -4.5925099999999999                -2.12656     -1.3493599999999999
   120   4     -5.3309600000000001     -2.0283699999999998     -3.0301499999999999
   121   2                 22.7546      16.229500000000002      5.7149099999999997
   122   2      24.254999999999999                  15.814      5.6512700000000002
   123   7      24.924099999999999      17.208300000000001                  5.8689
   124   2      23.988600000000002      18.124099999999999      5.6362300000000003
   125   7      24.084499999999998                 19.3217      5.6571999999999996
   126   7      22.706700000000001      17.628299999999999      5.5878199999999998
   127   4      22.261900000000001      15.844099999999999      6.5821699999999996
   128   4      22.301400000000001      15.804600000000001      4.8134199999999998
   129   4      24.428799999999999                 15.4954      4.5728999999999997
   130   4      24.729700000000001                 15.1694      6.3798599999999999
   131   2                 12.1363                 20.1586      16.209199999999999
   132   2                 12.9991      19.057500000000001      16.888500000000001
   133   7                 13.3599                 18.1996      15.781700000000001
   134   2      13.242599999999999      18.874600000000001      14.581899999999999
   135   7      13.720700000000001      18.535599999999999                 13.5146
   136   7      12.525600000000001                 19.9803                 14.7674
   137   4                 12.4983      21.141500000000001      16.463799999999999
   138   4      11.040699999999999                 19.9374      16.266200000000001
   139   4                 12.4937      18.424800000000001      17.637799999999999
   140   4                   13.91      19.483499999999999      17.346900000000002
   141   2      23.234100000000002                  24.471      5.7336400000000003
   142   2      22.345400000000001      24.222999999999999      6.9626999999999999
   143   7      21.008299999999998      24.194099999999999      6.3265099999999999
   144   2      21.108699999999999      24.706299999999999      5.1014400000000002
   145   7                  20.195                 24.8203      4.3049999999999997
   146   7      22.334499999999998                 25.0581      4.8262299999999998
   147   4                 23.7117      23.673200000000001      5.2043299999999997
   148   4      24.033999999999999                 25.1814      5.9467499999999998
   149   4      22.307400000000001      24.985700000000001      7.7434599999999998
   150   4      22.481999999999999                 23.1678      7.2441399999999998
   151   2     -5.7532100000000002      16.799099999999999     -5.9790400000000004
   152   2                 -4.4615                 16.3064                -6.55661
   153   7     -3.4853499999999999      16.881599999999999     -5.6690100000000001
   154   2     -3.9565999999999999                  18.151     -5.3470399999999998
   155   7     -3.3663599999999998      19.096800000000002     -4.8997400000000004
   156   7                -5.31738      18.170400000000001     -5.5331999999999999
   157   4     -6.1404899999999998      16.268999999999998                -5.11259
   158   4     -6.4660099999999998      16.812799999999999     -6.7917300000000003
   159   4     -4.2742100000000001      16.702200000000001                -7.59612
   160   4     -4.4037300000000004                  15.212     -6.5618499999999997
   161   2     -1.3656900000000001                 12.2455      15.813800000000001
   162   2               0.0611359      11.742599999999999                 15.5144
   163   7    0.025457400000000002                 11.2163                 14.1496
   164   2     -1.1775899999999999                 11.5845                 13.6106
   165   7                -1.58022                 11.3246      12.504799999999999
   166   7     -1.9884999999999999      12.176500000000001      14.472200000000001
   167   4     -1.4173500000000001      13.269600000000001      16.182600000000001
   168   4     -1.8352599999999999      11.573600000000001      16.536799999999999
   169   4     0.39410400000000001      10.900700000000001                 16.1709
   170   4     0.86120200000000002      12.463100000000001      15.656000000000001
   171   2      20.278199999999998      24.255299999999998                 21.5291
   172   2                 21.0746      23.700700000000001      22.763999999999999
   173   7                 20.0396      23.156199999999998                 23.6557
   174   2      18.929200000000002      23.838899999999999      23.335999999999999
   175   7      17.914300000000001      23.851299999999998      24.016999999999999
   176   7                 19.0063                   24.48      22.093399999999999
   177   4      20.222999999999999      23.498699999999999      20.712800000000001
   178   4      20.714500000000001      25.121200000000002      21.122199999999999
   179   4                 21.6281      24.453700000000001                 23.3489
   180   4      21.808299999999999      22.946400000000001      22.569600000000001
   181   2      15.294499999999999      11.197800000000001                 14.2766
   182   2                 16.7516                 11.7568                 14.0845
   183   7      16.495999999999999                  13.097      13.396599999999999
   184   2                 15.1579                 13.3344                 13.4178
   185   7      14.653600000000001                 14.4023                 12.9909
   186   7                 14.4473                 12.3218      13.937099999999999
   187   4                 15.0962      10.885300000000001      15.268800000000001
   188   4                 15.0153      10.380800000000001      13.495100000000001
   189   4                 17.4605                 11.2361                 13.4222
   190   4                 17.2456                 11.9991                 15.0282
   191   2      16.238499999999998      24.168600000000001      19.790800000000001
   192   2      16.425699999999999                  24.695      18.365100000000002
   193   7                 15.4453      23.972200000000001                 17.6753
   194   2      15.079499999999999                 22.9057                 18.3566
   195   7      14.304500000000001      22.059200000000001                 18.0199
   196   7                 15.6793      22.838000000000001      19.574999999999999
   197   4                 15.4985                 24.6951                 20.3353
   198   4                 17.1387                 23.9756      20.379100000000001
   199   4      17.395399999999999      24.453700000000001                 17.8429
   200   4      16.252800000000001      25.761099999999999      18.182300000000001
   201   2                 14.7476      13.409599999999999      21.146000000000001
   202   2                 15.3918                 14.3612      22.193200000000001
   203   7      16.824100000000001      13.997299999999999      22.302299999999999
   204   2      16.970600000000001                 12.8833      21.544799999999999
   205   7      18.005800000000001      12.313000000000001      21.422599999999999
   206   7                 15.8583      12.508900000000001      20.913599999999999
   207   4                 14.6088                  14.035      20.229299999999999
   208   4      13.794600000000001      12.876099999999999      21.407299999999999
   209   4                 14.9268                 14.3698      23.178599999999999
   210   4                 15.2752                 15.3697                  21.776
   211   2                 18.9343      16.195499999999999      19.109999999999999
   212   2                 19.9741                 15.0932                 19.2789
   213   7      19.479399999999998      14.168699999999999                 18.2212
   214   2      18.123200000000001      14.325900000000001                 17.9894
   215   7      17.473700000000001                 13.5281      17.383099999999999
   216   7      17.783200000000001      15.460699999999999      18.712299999999999
   217   4      19.178699999999999                 16.9436                 18.3169
   218   4                 18.7059      16.545000000000002      20.104800000000001
   219   4                 19.9894                 14.6081                 20.2744
   220   4      21.037099999999999      15.422499999999999                 19.0152
   221   2                -3.82151      18.316199999999998      6.2486899999999999
   222   2     -2.5287600000000001      18.046199999999999      5.4951100000000004
   223   7     -2.2798500000000002                 19.3093      4.7345100000000002
   224   2     -3.1417899999999999                 20.2319      5.1792499999999997
   225   7     -3.0118399999999999      21.381499999999999      4.8763399999999999
   226   7     -4.0474300000000003                 19.7212      5.9861199999999997
   227   4                -3.86571      18.277200000000001      7.3442800000000004
   228   4     -4.5924399999999999      17.694800000000001      5.8235299999999999
   229   4     -2.7879100000000001      17.196999999999999      4.8838299999999997
   230   4     -1.6088800000000001      17.754899999999999      6.0830900000000003
   231   2      11.795299999999999                 17.8748      22.383299999999998
   232   2                  10.302      17.666499999999999      22.470500000000001
   233   7                 10.2576                 16.1769      22.032599999999999
   234   2                 11.4504                 15.6623      22.298500000000001
   235   7                 11.6845      14.461600000000001      22.128399999999999
   236   7      12.361700000000001                 16.6188      22.761700000000001
   237   4      12.174200000000001      18.643999999999998      23.074300000000001
   238   4                 12.0915                 18.2559      21.338999999999999
   239   4      9.6759000000000004      18.113099999999999      21.698699999999999
   240   4      9.8979300000000006      17.757000000000001      23.467199999999998
   241   2      7.0591400000000002      22.017199999999999      20.049900000000001
   242   2      6.9313900000000004                 22.8398                 18.8141
   243   7      5.7405900000000001                 23.5932      19.048200000000001
   244   2      4.9260099999999998      22.843399999999999                 19.8628
   245   7                 3.74363      22.971399999999999      20.031700000000001
   246   7                 5.66995      21.882100000000001      20.461600000000001
   247   4      7.6448299999999998      22.524100000000001      20.837299999999999
   248   4      7.4357199999999999      20.983599999999999      19.857099999999999
   249   4      6.8099999999999996      22.301100000000002      17.855799999999999
   250   4      7.7436699999999998      23.567399999999999                 18.6615
   251   2      18.960599999999999      19.930399999999999                0.649675
   252   2      19.272200000000002      18.536899999999999                 1.25905
   253   7      20.052199999999999                 17.8705                0.232292
   254   2      20.208300000000001      18.653600000000001    -0.86733700000000002
   255   7      20.906400000000001      18.295400000000001                -1.78077
   256   7                  19.581      19.795000000000002    -0.65352900000000003
   257   4                 19.5198                 20.6508      1.3015699999999999
   258   4      17.866499999999998      20.268599999999999     0.47410400000000003
   259   4      18.402899999999999      17.991399999999999                 1.49579
   260   4      19.914300000000001      18.610900000000001      2.1360299999999999
   261   2     0.77839800000000003                 12.6076     -2.8722699999999999
   262   2                 0.86373      12.632300000000001                -1.37192
   263   7      1.5289900000000001      11.457100000000001                -1.03288
   264   2                 2.30281      11.095800000000001     -2.1698499999999998
   265   7      3.3182800000000001      10.388199999999999     -2.2022599999999999
   266   7                 1.81491      11.704499999999999     -3.2914599999999998
   267   4     0.90149400000000002                 13.5594                -3.44624
   268   4               -0.150393      12.235099999999999     -3.2750599999999999
   269   4   -0.091394699999999995                 12.5837    -0.92989200000000005
   270   4                   1.329      13.545400000000001                -1.02308
   271   2      6.4961399999999996                 10.7919      9.1591900000000006
   272   2      7.6708600000000002      10.280799999999999      9.9593399999999992
   273   7      7.6362100000000002      8.8411100000000005      9.6599799999999991
   274   2      6.5380599999999998      8.4799900000000008      8.9201499999999996
   275   7      6.3077300000000003      7.3407299999999998      8.5407299999999999
   276   7      5.8648199999999999      9.6063500000000008      8.5271500000000007
   277   4      6.9519200000000003                 11.4398      8.3708299999999998
   278   4      5.6076499999999996                 11.1799      9.7229700000000001
   279   4                 7.58101                 10.2507      11.026300000000001
   280   4      8.6456800000000005                 10.5799      9.5707299999999993
   281   2                 7.78139      4.6489399999999996                 11.5527
   282   2      6.7674399999999997                 3.95147                 12.4483
   283   7                 6.19428                  2.8022      11.617000000000001
   284   2      6.9261400000000002      2.7472300000000001      10.430999999999999
   285   7      6.7088099999999997      1.9240999999999999      9.5358800000000006
   286   7      7.8177599999999998      3.7734100000000002                 10.2971
   287   4      8.8204499999999992      4.7201300000000002                  11.882
   288   4      7.3388499999999999      5.6518100000000002      11.226100000000001
   289   4      5.8946699999999996      4.6265900000000002      12.636100000000001
   290   4      7.1685400000000001      3.3801199999999998      13.297499999999999
   291   2                 15.6996      3.9703300000000001      9.7105200000000007
   292   2      14.944599999999999      3.6821000000000002      8.4177900000000001
   293   7                 14.9376      4.9506199999999998      7.7304199999999996
   294   2      14.838100000000001      5.8464099999999997      8.7210000000000001
   295   7                 14.6516      7.0272399999999999      8.6559399999999993
   296   7                 15.1113      5.3137600000000003      9.9461999999999993
   297   4      16.803999999999998                 3.96489      9.7057300000000009
   298   4                 15.3268      3.3301400000000001                  10.565
   299   4      13.928800000000001      3.3780399999999999      8.6889400000000006
   300   4                 15.4956      2.9708600000000001                 7.83927
   301   2      22.054500000000001      10.926500000000001      4.5956200000000003
   302   2      20.830500000000001                 11.1639      5.4961399999999996
   303   7      19.963899999999999      10.190200000000001                 4.78695
   304   2      20.730399999999999                  9.0968                 4.47262
   305   7                 20.3568      7.9678699999999996      4.2140399999999998
   306   7                 22.0549      9.4966899999999992                 4.55565
   307   4      23.072900000000001      11.266500000000001      4.8053699999999999
   308   4      21.733599999999999                 11.2204      3.6283400000000001
   309   4      20.235099999999999      12.066700000000001      5.4619499999999999
   310   4      20.875599999999999      10.832100000000001      6.5307700000000004
   311   2               -0.140065      18.697800000000001      13.324999999999999
   312   2      1.1602399999999999      19.180700000000002                 13.8886
   313   7      1.5055799999999999      18.075900000000001      14.872999999999999
   314   2     0.33624500000000002                 17.5136                 15.2614
   315   7     0.25741399999999998      16.597000000000001      16.036999999999999
   316   7    -0.69707799999999998      17.924499999999998      14.459899999999999
   317   4     0.12474399999999999      17.918600000000001                 12.5716
   318   4    -0.86193600000000004      19.456499999999998                 12.9344
   319   4      1.0309999999999999                 20.0504      14.519399999999999
   320   4      2.0447799999999998      19.269500000000001                 13.2988
   321   2      12.059200000000001     -7.1016700000000004      18.478999999999999
   322   2      12.418200000000001                 -6.8956                 17.0001
   323   7      13.557399999999999     -7.7556599999999998      16.881399999999999
   324   2      13.580299999999999     -8.6620899999999992      17.824000000000002
   325   7                 14.4061     -9.5688999999999993      17.880800000000001
   326   7      12.549899999999999     -8.4801900000000003                 18.7409
   327   4      10.960900000000001     -7.0389699999999999      18.675799999999999
   328   4                 12.5427     -6.4015899999999997      19.183599999999998
   329   4                 12.7546     -5.8470300000000002      16.879000000000001
   330   4                 11.6797     -7.2033199999999997      16.315300000000001
   331   2      16.049099999999999      22.084399999999999      14.931900000000001
   332   2                 15.1783                 23.0319                 14.1812
   333   7                 15.8864      24.343499999999999                 14.2986
   334   2      17.030000000000001      24.138500000000001      15.017799999999999
   335   7                 17.8371      25.017199999999999                 15.3177
   336   7                 17.2058      22.860199999999999      15.454800000000001
   337   4                 16.4618      21.263500000000001      14.271000000000001
   338   4                 15.4689      21.604399999999998                 15.7151
   339   4      14.201000000000001      23.170100000000001                 14.7067
   340   4      15.110900000000001      22.715599999999998                 13.0861
   341   2                  20.718                -0.90681                 17.5459
   342   2      20.593399999999999    -0.35366300000000001                 16.1492
   343   7                 20.1389      1.0972500000000001      16.322399999999998
   344   2                 20.1873      1.3628899999999999                 17.6435
   345   7      19.927900000000001      2.3820800000000002      18.250699999999998
   346   7      20.605899999999998     0.31750800000000001      18.399799999999999
   347   4      21.640499999999999                -1.34104      17.840199999999999
   348   4      19.831900000000001     -1.5689299999999999                 17.7179
   349   4      19.868099999999998    -0.76343000000000005      15.540699999999999
   350   4                 21.5017    -0.28839199999999998                 15.5786
   351   2      6.7219600000000002      9.4660299999999999      3.9075700000000002
   352   2      8.0056499999999993      8.6818000000000008      4.1398999999999999
   353   7      8.5622600000000002      9.1731099999999994      5.3416600000000001
   354   2      7.8850600000000002      10.302899999999999      5.7019200000000003
   355   7      8.2918800000000008                  11.029      6.6350699999999998
   356   7      6.8180500000000004      10.473599999999999      4.9683400000000004
   357   4      5.7496999999999998      8.9356299999999997      4.0113000000000003
   358   4      6.6510999999999996      9.9963200000000008      2.9472700000000001
   359   4      8.7965300000000006                 8.79115      3.3715600000000001