(written by ASE)

915 atoms
9 atom types

0.0      21.712770568302616  xlo xhi
0.0      21.712770568302616  ylo yhi
0.0      21.712770568302616  zlo zhi

Atoms # atomic

     1   2                 14.2317      6.2246899999999998      3.8705099999999999
     2   2      13.678900000000001                  5.1852      4.8056599999999996
     3   7                 14.7644      4.1699700000000002      4.9444499999999998
     4   2                 15.9238      4.7552899999999996      4.6144999999999996
     5   7      17.048300000000001                 4.26905                 4.77752
     6   7      15.690899999999999      5.9358599999999999      4.0333199999999998
     7   4      14.083600000000001                 7.27189      4.0914200000000003
     8   4                 13.9803      6.1774699999999996      2.8197999999999999
     9   4                 12.7578      4.6559100000000004                 4.43215
    10   4                 13.6349      5.6378000000000004      5.8014999999999999
    11   2      3.2961399999999998                  11.631      23.134399999999999
    12   2      2.5659100000000001                 12.6561      24.048400000000001
    13   7      2.7103199999999998                 12.0039      25.403400000000001
    14   2      3.3793799999999998                 10.8468      25.286000000000001
    15   7                 3.73767      10.248699999999999      26.282800000000002
    16   7      3.6097800000000002      10.529999999999999      24.006399999999999
    17   4      4.2682000000000002                 12.0899      22.922599999999999
    18   4      2.7972100000000002      11.055300000000001                 22.3474
    19   4      1.5243599999999999      12.860900000000001      23.889500000000002
    20   4      3.0974699999999999      13.611599999999999                 24.1189
    21   2                 2.88984      2.5180400000000001      16.046800000000001
    22   2      4.1454399999999998                 1.75431      15.816000000000001
    23   7      4.2767799999999996                 1.72698                 14.2461
    24   2      3.3885700000000001      2.6551900000000002      13.767200000000001
    25   7      3.5412599999999999      3.1429499999999999                 12.6693
    26   7      2.3272300000000001                 2.84537                 14.7018
    27   4      3.0381300000000002                 3.47146      16.582000000000001
    28   4      2.1036199999999998      1.9054199999999999      16.551600000000001
    29   4      4.0974599999999999     0.68386800000000003      16.161100000000001
    30   4      5.0835600000000003      2.1859799999999998      16.110900000000001
    31   2                 11.4793    -0.24084800000000001                -1.23963
    32   2      10.742800000000001                 0.11712     -2.4975900000000002
    33   7      10.882400000000001      1.6033299999999999     -2.4939200000000001
    34   2                 11.5596      2.0210599999999999     -1.3848499999999999
    35   7                 11.7972      3.2295600000000002                -1.09256
    36   7                 11.9954     0.98841800000000002    -0.65672600000000003
    37   4      12.323700000000001               -0.928118     -1.3893500000000001
    38   4      10.838900000000001    -0.72574499999999997    -0.50584399999999996
    39   4      9.6541300000000003    0.075924599999999995     -2.4603600000000001
    40   4                 11.2028    -0.33034999999999998     -3.3686099999999999
    41   2      7.6658400000000002      5.3020100000000001                 17.8475
    42   2      8.0673600000000008      5.4616699999999998      16.329899999999999
    43   7      6.8299300000000001      5.4286000000000003      15.635999999999999
    44   2      5.7740400000000003      5.2549900000000003      16.467099999999999
    45   7      4.6368600000000004      5.2732799999999997                 16.0624
    46   7      6.1286500000000004      5.2069299999999998      17.724699999999999
    47   4      7.9468100000000002      6.1830100000000003      18.461500000000001
    48   4      8.0373300000000008      4.3052900000000003      18.144200000000001
    49   4      8.6511499999999995      4.5915800000000004      16.059200000000001
    50   4      8.5642800000000001      6.3500199999999998                 16.0639
    51   2                  11.919     0.72952600000000001      6.2422800000000001
    52   2      11.525700000000001      2.1027999999999998      5.8247600000000004
    53   7      10.100899999999999      2.1265100000000001      6.2894600000000001
    54   2      9.7151999999999994                 1.06498      7.0101100000000001
    55   7      8.6125699999999998     0.83378799999999997      7.4954900000000002
    56   7      10.803599999999999     0.28026200000000001      7.1020399999999997
    57   4      12.747400000000001     0.76019700000000001                 6.95472
    58   4                 12.0403              -0.0141079      5.4589499999999997
    59   4                 11.4185      2.2794599999999998      4.7989100000000002
    60   4                 12.0395      2.8627899999999999      6.4173600000000004
    61   2                -13.7531     -6.3766100000000003                 9.35365
    62   2                -12.7713     -6.3231999999999999      8.1942699999999995
    63   7                -11.6195     -7.1385699999999996      8.5709999999999997
    64   2                -11.7615     -7.5103499999999999      9.8717600000000001
    65   7                 -10.811     -8.0691600000000001                 10.4442
    66   7     -13.010199999999999     -7.3081699999999996                 10.3933
    67   4                -14.6274     -6.9847799999999998      8.9804499999999994
    68   4                -13.8705     -5.3845599999999996      9.8614599999999992
    69   4     -12.364100000000001     -5.3050100000000002      8.0712499999999991
    70   4     -13.196999999999999     -6.6481199999999996      7.2497800000000003
    71   2                 10.6586      24.598400000000002                -10.8744
    72   2      11.648899999999999                 24.6082     -9.7612299999999994
    73   7                 12.9491      24.964099999999998                -10.4268
    74   2      12.825200000000001      24.565999999999999                -11.6732
    75   7      13.744199999999999                 24.4251                -12.4955
    76   7      11.475099999999999      24.233899999999998                -12.0334
    77   4      10.111000000000001      25.531500000000001                -11.0677
    78   4      9.9164499999999993                 23.8093     -10.693099999999999
    79   4      11.813800000000001                 23.6371     -9.2876399999999997
    80   4      11.427899999999999                 25.3032     -8.9783200000000001
    81   2      6.1339899999999998      13.115399999999999      4.9576799999999999
    82   2      5.5431900000000001      14.491199999999999                 5.03714
    83   7      5.5078100000000001      14.741400000000001      6.5373999999999999
    84   2      5.5784700000000003      13.510400000000001      7.1597600000000003
    85   7      5.6282899999999998      13.347099999999999      8.3498900000000003
    86   7      5.6265599999999996                 12.5067      6.1967800000000004
    87   4      7.2593399999999999      12.979799999999999      4.9784499999999996
    88   4      5.7052300000000002      12.577500000000001      4.1340500000000002
    89   4      4.5358099999999997                 14.4245      4.6989000000000001
    90   4      6.0846200000000001                 15.2174      4.4286399999999997
    91   2     -2.5466500000000001                 14.3927      2.5243099999999998
    92   2     -2.2486000000000002      14.785500000000001                 1.07694
    93   7                -1.22319                 13.7761     0.68855200000000005
    94   2                -1.05505      12.850300000000001      1.6254500000000001
    95   7    -0.23942099999999999      11.901999999999999      1.5620099999999999
    96   7                -1.83127                 13.1211      2.6992400000000001
    97   4     -3.6060300000000001      14.196899999999999      2.7227700000000001
    98   4     -2.0963400000000001      15.130100000000001      3.1983899999999998
    99   4                -1.72953                 15.7346     0.99916700000000003
   100   4     -3.1084900000000002                 14.6091                0.385409
   101   2                 3.37581      7.6653399999999996                 6.91214
   102   2      2.5855100000000002      6.5365200000000003      6.3264899999999997
   103   7      1.4625300000000001      6.4548399999999999      7.4069599999999998
   104   2      1.3985099999999999      7.7818100000000001      7.8879200000000003
   105   7                0.442778      8.3212399999999995      8.4190799999999992
   106   7      2.4847299999999999      8.4870800000000006      7.5788500000000001
   107   4      3.9477099999999998      8.1555400000000002                 6.05748
   108   4      4.0322399999999998      7.2611600000000003      7.6932099999999997
   109   4      3.1135700000000002      5.6031199999999997      6.3214899999999998
   110   4      2.1323099999999999      6.8635799999999998      5.3566099999999999
   111   2     -6.3981000000000003     -2.4066299999999998     -1.3570199999999999
   112   2                -5.25176                -3.45018     -1.3678600000000001
   113   7     -5.9380899999999999                -4.75387                -1.57097
   114   2     -7.0750500000000001     -4.5407299999999999                -2.18242
   115   7     -7.7120699999999998     -5.4380100000000002     -2.7885599999999999
   116   7     -7.5021000000000004     -3.1587299999999998     -2.0693199999999998
   117   4     -6.1594899999999999     -1.5433399999999999                -1.93774
   118   4     -6.8023400000000001                -2.11477               -0.388986
   119   4     -4.6543999999999999                 -3.5238               -0.480049
   120   4     -4.6073199999999996     -3.2163900000000001     -2.2019099999999998
   121   2                 22.6586      16.110399999999998      5.9964899999999997
   122   2      24.109300000000001      15.813499999999999      5.7559399999999998
   123   7                 24.7393                 17.0594      5.4323499999999996
   124   2                 23.9345      18.004000000000001      5.8807799999999997
   125   7      24.233599999999999      19.162400000000002                 5.69679
   126   7      22.716999999999999      17.524899999999999      6.3495600000000003
   127   4      22.224900000000002      15.346500000000001      6.6994800000000003
   128   4      22.120100000000001      15.995799999999999      5.0336600000000002
   129   4      24.296399999999998                 15.1403      4.9713200000000004
   130   4      24.589500000000001      15.377800000000001      6.6680099999999998
   131   2                 12.2829      19.826899999999998      16.019200000000001
   132   2                 13.2492                 18.6616                 16.3355
   133   7      13.760999999999999      18.415299999999998      15.036300000000001
   134   2                 13.3247                 19.2972                 14.1509
   135   7      13.770099999999999                 19.3277      13.017799999999999
   136   7      12.436400000000001      20.160299999999999                 14.6319
   137   4      12.512700000000001                 20.7517                 16.6069
   138   4                   11.26                 19.5977      16.189499999999999
   139   4                 12.7347      17.796600000000002      16.744299999999999
   140   4                 14.0092                 18.9419      17.089600000000001
   141   2      23.761700000000001      24.613600000000002                  5.4855
   142   2                 23.1889      24.184999999999999      6.8631099999999998
   143   7                  21.759      24.242999999999999      6.4634900000000002
   144   2      21.525200000000002                 24.9086                  5.3411
   145   7      20.349399999999999      25.106200000000001      4.9461599999999999
   146   7      22.656700000000001      25.327300000000001      4.7576000000000001
   147   4                   24.16      23.842099999999999      4.7755299999999998
   148   4      24.552800000000001                 25.3141      5.4627499999999998
   149   4                 23.2881      24.881599999999999      7.6876600000000002
   150   4      23.428799999999999      23.126300000000001      6.9928999999999997
   151   2     -5.7695699999999999                 15.9643     -6.0366200000000001
   152   2     -4.7602200000000003                 16.2529     -7.2295800000000003
   153   7                 -3.9983      17.407599999999999     -6.6389699999999996
   154   2     -4.5938699999999999                 17.8444     -5.5275699999999999
   155   7     -4.3543099999999999      18.947800000000001     -5.0598799999999997
   156   7     -5.5373799999999997                 16.9682     -5.0996199999999998
   157   4     -5.6042100000000001                 14.9375     -5.5475099999999999
   158   4                -6.83209                 15.9313                -6.46021
   159   4     -5.2760999999999996      16.728000000000002     -8.0664300000000004
   160   4     -4.0552299999999999      15.473800000000001     -7.4264099999999997
   161   2     -1.4805600000000001      12.793100000000001                 15.0877
   162   2   -0.030418799999999999                 12.7767                 14.6098
   163   7    0.024540900000000001      11.690799999999999      13.757300000000001
   164   2     -1.2557199999999999                 11.3156                 13.4041
   165   7     -1.4515499999999999      10.390499999999999                 12.6685
   166   7     -2.1598600000000001                 12.2248      13.889099999999999
   167   4     -1.9049700000000001      13.783200000000001                 15.2463
   168   4     -1.6450400000000001                 12.0199      15.878500000000001
   169   4     0.68411200000000005      12.520200000000001                 15.4299
   170   4                0.245865                 13.7066      14.110799999999999
   171   2      19.902899999999999                  25.407      21.667999999999999
   172   2      20.980699999999999      24.282900000000001                 21.7896
   173   7      20.677900000000001                 23.6997      23.171099999999999
   174   2      19.336400000000001                 23.9573                 23.4558
   175   7      18.759799999999998                 23.4346      24.400600000000001
   176   7      18.807300000000001      24.898900000000001      22.568300000000001
   177   4      19.403700000000001      25.441700000000001                 20.6846
   178   4                 20.2059                 26.3508      22.114899999999999
   179   4      21.944500000000001      24.875599999999999      21.893000000000001
   180   4      20.888000000000002      23.538799999999998      21.025400000000001
   181   2      15.354100000000001      10.504099999999999                 14.6839
   182   2      16.527000000000001                 11.2669                 15.2142
   183   7                 16.3613                 12.6541      14.697800000000001
   184   2                 15.1981                 12.7773                 13.9727
   185   7      14.854200000000001                 13.7689                 13.3569
   186   7      14.495699999999999                 11.5822                 14.0496
   187   4      14.881500000000001                 9.99437                 15.4419
   188   4                 15.5648      9.7154699999999998      13.832100000000001
   189   4                 17.5242                 10.9552                 14.8912
   190   4                 16.4041                 11.3825      16.321200000000001
   191   2      17.337800000000001      24.972000000000001                 19.1294
   192   2      16.462800000000001      25.535900000000002      18.057700000000001
   193   7      15.286199999999999      24.668500000000002      18.275099999999998
   194   2                 15.6371                 23.5379      18.901900000000001
   195   7      14.917299999999999      22.581900000000001      19.151599999999998
   196   7      17.020800000000001      23.577500000000001                 19.1755
   197   4                 17.1511                 25.3476      20.096599999999999
   198   4      18.416699999999999      25.091200000000001      18.916699999999999
   199   4      16.762699999999999      25.332100000000001      17.067399999999999
   200   4                 16.1265      26.516100000000002                  18.221
   201   2      14.146599999999999      14.071999999999999      21.734400000000001
   202   2      14.994999999999999      14.510999999999999      22.988199999999999
   203   7      16.334800000000001      13.879799999999999      22.719899999999999
   204   2      16.303599999999999                 13.2538      21.468900000000001
   205   7                 17.3093      12.911099999999999      20.907800000000002
   206   7                 15.0785                 13.3062      20.951799999999999
   207   4                 13.6745                 14.7979      21.086099999999998
   208   4      13.394399999999999      13.338699999999999      22.100200000000001
   209   4                 14.5685                 14.0052      23.853400000000001
   210   4      15.072100000000001                 15.5848      23.155100000000001
   211   2      19.040800000000001                 15.9407      18.972000000000001
   212   2      20.367999999999999                 15.1127                  18.753
   213   7      19.886500000000002                 13.9499      17.988099999999999
   214   2      18.492899999999999                 13.8949                 18.1007
   215   7                  17.811      13.043900000000001      17.628399999999999
   216   7                 18.0306      14.937099999999999      18.767700000000001
   217   4      18.928999999999998                 16.8855      18.311299999999999
   218   4      19.008099999999999      16.151499999999999      20.012799999999999
   219   4                 20.7484      14.763500000000001                 19.7742
   220   4      21.177399999999999      15.631500000000001                 18.1736
   221   2     -4.1043000000000003      18.141200000000001      6.3114999999999997
   222   2     -2.8355899999999998      17.803799999999999      5.5422200000000004
   223   7     -2.3247800000000001      19.098800000000001      5.0003299999999999
   224   2     -3.3832399999999998      20.027200000000001      5.0527300000000004
   225   7     -3.3073399999999999      21.164300000000001      4.6359700000000004
   226   7                -4.43126      19.446400000000001      5.6116400000000004
   227   4     -3.7869799999999998      18.378799999999998      7.3227700000000002
   228   4     -5.0275299999999996                 17.5093      6.0781499999999999
   229   4     -2.9797600000000002      17.139500000000002      4.6150599999999997
   230   4     -2.1137299999999999      17.280799999999999      6.1787200000000002
   231   2                 11.7135      17.932099999999998                 21.2227
   232   2                 10.3543      18.004300000000001      21.921900000000001
   233   7                 10.1219                 16.6736      22.411999999999999
   234   2                 11.1326      15.821099999999999      21.996300000000002
   235   7                 11.1127      14.585900000000001      22.104399999999998
   236   7                 12.0931      16.518599999999999      21.418500000000002
   237   4      12.520799999999999      18.390599999999999      21.751300000000001
   238   4                 11.7163      18.287400000000002                 20.1919
   239   4      9.4963499999999996      18.219100000000001      21.296099999999999
   240   4      10.427099999999999      18.706900000000001      22.736699999999999
   241   2                 6.33995      21.133299999999998                 19.2485
   242   2      6.3352300000000001      22.359999999999999      18.287500000000001
   243   7      5.3349299999999999      23.238700000000001      18.870799999999999
   244   2      4.4094899999999999                 22.4373                 19.4331
   245   7      3.3009499999999998                 22.8203                 19.7059
   246   7      4.8852700000000002      21.155100000000001      19.591100000000001
   247   4      6.8799799999999998      21.282800000000002      20.162800000000001
   248   4      6.5671600000000003      20.160599999999999                 18.8415
   249   4      5.9535099999999996      22.091899999999999      17.300000000000001
   250   4      7.2427799999999998                 22.9268      18.244199999999999
   251   2                 19.7425                 20.0748                 1.72275
   252   2      19.119499999999999                 18.6709                 1.93567
   253   7      18.911200000000001      18.157399999999999     0.57987900000000003
   254   2      19.628599999999999      18.920500000000001    -0.29652200000000001
   255   7      19.743600000000001      18.631599999999999     -1.4651700000000001
   256   7      20.084099999999999                  19.991     0.31320199999999998
   257   4      20.717600000000001      20.190100000000001                 2.21875
   258   4      19.037500000000001                 20.8139                 1.98261
   259   4      18.207799999999999      18.747399999999999      2.4873500000000002
   260   4                 19.7926      17.922699999999999                 2.47384
   261   2     0.69733299999999998      11.731199999999999                -3.71773
   262   2     0.71408899999999997                 12.5282     -2.3191299999999999
   263   7      1.5073399999999999                 11.6813     -1.4341999999999999
   264   2                 1.75685      10.467000000000001     -2.0438100000000001
   265   7      2.3564799999999999      9.6104199999999995     -1.4161999999999999
   266   7                 1.22509                 10.3592     -3.2687499999999998
   267   4      1.3535699999999999                 12.2029     -4.5068900000000003
   268   4                -0.23413                 11.4625     -4.1872699999999998
   269   4    -0.30935499999999999                 12.5936     -1.8091299999999999
   270   4                 1.12256                 13.5655     -2.4054099999999998
   271   2      6.2976599999999996                 11.0184      11.266400000000001
   272   2      7.5209200000000003                 10.8887      10.388199999999999
   273   7      7.4245400000000004      9.5437200000000004      9.8055900000000005
   274   2      6.1284700000000001      9.1148799999999994      9.9849999999999994
   275   7      5.7214999999999998      7.9695999999999998      9.7795699999999997
   276   7      5.3530100000000003                 10.0344                 10.6419
   277   4      5.7855800000000004                 12.0329                 11.2849
   278   4      6.4797200000000004                 10.6495                 12.3034
   279   4      8.4647400000000008                 10.9824                 10.9748
   280   4      7.5535600000000001                 11.5083      9.4642800000000005
   281   2      7.2985800000000003      4.9212199999999999      12.811400000000001
   282   2      6.6683300000000001      3.7736299999999998                 13.6189
   283   7                 6.54373      2.6473900000000001      12.655200000000001
   284   2      6.8721199999999998      3.1034600000000001      11.478400000000001
   285   7      6.7035900000000002      2.3744499999999999      10.469200000000001
   286   7      7.3772500000000001      4.3414700000000002                 11.3972
   287   4      8.3359000000000005      5.3006799999999998                 12.9801
   288   4                 6.60344      5.8011100000000004                 12.7119
   289   4      5.6288400000000003      4.0592899999999998      13.885199999999999
   290   4      7.2917199999999998      3.5140099999999999                 14.4594
   291   2      16.416799999999999      4.2740900000000002      9.7806599999999992
   292   2                  16.131                 4.02651      8.3315599999999996
   293   7      16.132300000000001      5.3831699999999998      7.7528199999999998
   294   2      15.741899999999999      6.2015599999999997                  8.7119
   295   7                  15.365      7.3066800000000001      8.4559499999999996
   296   7      15.745200000000001                 5.59192      10.008699999999999
   297   4      17.513300000000001      4.3507499999999997      9.9497400000000003
   298   4                 15.9962      3.6179000000000001      10.504099999999999
   299   4                 15.1608      3.6020500000000002      8.1745599999999996
   300   4      16.957899999999999      3.4027599999999998      7.8525900000000002
   301   2      22.005700000000001                 10.5335      5.6890900000000002
   302   2                 20.4907                 10.7075      5.9351900000000004
   303   7      19.968599999999999      9.5213000000000001      5.3124900000000004
   304   2                 20.8428      8.9667399999999997      4.4187399999999997
   305   7      20.529900000000001      8.1714300000000009                 3.55491
   306   7      22.096699999999998      9.6688500000000008      4.5901100000000001
   307   4                 22.6768      10.139699999999999      6.5884900000000002
   308   4                 22.4209      11.520300000000001                 5.41479
   309   4                 20.1539                 11.6669      5.4271099999999999
   310   4                 20.2182                 10.7134      6.9965400000000004
   311   2    -0.18613499999999999      18.671500000000002      13.346299999999999
   312   2     0.99129599999999995      19.213799999999999      14.085800000000001
   313   7      1.3220000000000001                 18.2011                 15.1648
   314   2                0.370508      17.172000000000001                  15.054
   315   7     0.29734899999999997                 16.2377                 15.8416
   316   7    -0.58674800000000005      17.482299999999999                 14.1088
   317   4                0.177763      18.201499999999999                  12.446
   318   4                -1.01783                 19.3477                 13.0701
   319   4     0.69506599999999996                 20.1053                 14.7104
   320   4      1.9037999999999999      19.432200000000002                 13.5061
   321   2                 11.4854     -7.4981400000000002      17.333500000000001
   322   2                 12.7668     -7.0357500000000002      16.567799999999998
   323   7                 13.8102     -8.0058699999999998      16.940200000000001
   324   2      13.229900000000001     -9.0174199999999995      17.698699999999999
   325   7      13.809699999999999     -9.9650499999999997                 18.2376
   326   7                 11.9054     -8.8187300000000004      17.773599999999998
   327   4                 10.6768                 -7.6692      16.638200000000001
   328   4                 11.0883     -6.8967200000000002      18.170999999999999
   329   4                 13.1629     -6.1007600000000002      16.941500000000001
   330   4      12.668799999999999                -7.06501                 15.4353
   331   2                   15.99      21.753299999999999                 15.7111
   332   2                 15.0436      22.538399999999999                 14.6465
   333   7                 15.7507      23.754100000000001                 14.3797
   334   2                 16.9711      23.773900000000001                 15.0204
   335   7      17.791599999999999      24.671700000000001                  14.852
   336   7      17.114000000000001      22.729700000000001                 15.9137
   337   4      16.399699999999999      20.811399999999999      15.329499999999999
   338   4      15.565899999999999      21.551600000000001                 16.7044
   339   4      14.105499999999999      22.831900000000001                 15.1097
   340   4                 14.9413                 21.9621                 13.7294
   341   2      20.257999999999999    -0.36301499999999998      18.491499999999998
   342   2      20.676500000000001    -0.31426700000000002                 17.0458
   343   7      20.923100000000002      1.1054600000000001                 16.8035
   344   2      20.768899999999999      1.8070200000000001      17.958300000000001
   345   7      21.025300000000001      2.9721000000000002      17.899100000000001
   346   7      20.400200000000002      1.0427299999999999                 18.9924
   347   4      20.979800000000001    -0.99374600000000002      19.104299999999999
   348   4      19.229500000000002    -0.62436800000000003      18.570399999999999
   349   4      20.005600000000001    -0.55201699999999998      16.231400000000001
   350   4      21.600300000000001    -0.76949199999999995                 16.8796
   351   2      6.8415600000000003      8.9050399999999996      4.9527200000000002
   352   2      8.2792200000000005      8.7706400000000002      4.4317599999999997
   353   7      8.9979600000000008      9.7858300000000007      5.2201500000000003
   354   2      8.2123500000000007                 10.1752      6.2992699999999999
   355   7      8.6294599999999999      10.918699999999999      7.1919000000000004
   356   7      7.0201799999999999      9.5769699999999993      6.1859400000000004
   357   4      6.4945399999999998      7.8859899999999996      5.1991199999999997
   358   4      6.0363100000000003      9.4040099999999995      4.3721300000000003
   359   4      8.5239700000000003      9.0650600000000008      3.4346000000000001