(written by ASE)

888 atoms
9 atom types

0.0      21.553999999999998  xlo xhi
0.0      21.553999999999998  ylo yhi
0.0                  21.544  zlo zhi

Atoms # atomic

     1   2     -32.857500000000002     -12.765499999999999                 20.1966
     2   4     -33.882199999999997                -12.7591      20.680099999999999
     3   4     -32.066099999999999     -12.954700000000001      20.943200000000001
     4   7     -32.585000000000001                -11.4156                 19.6004
     5   2     -32.545499999999997                -11.5336                 18.2608
     6   7     -32.336799999999997                -10.5961      17.465900000000001
     7   7     -32.788600000000002     -12.815200000000001      17.808399999999999
     8   2     -32.857199999999999                -13.7028      18.984999999999999
     9   4                -31.9727                -14.3988                 18.9313
    10   4                -33.8277                -14.2127      18.951799999999999
    11   2     -26.299800000000001     -6.6162700000000001      5.4720500000000003
    12   4     -25.290900000000001     -6.9875800000000003      5.9033699999999998
    13   4                -26.5579                 15.8794      5.9236000000000004
    14   7     -27.438700000000001     -7.4757300000000004                 5.85222
    15   2                -28.3522     -7.5358299999999998      4.8586499999999999
    16   7     -29.401399999999999     -8.1645099999999999      4.8284700000000003
    17   7     -27.860800000000001     -6.8083099999999996      3.7577699999999998
    18   2     -26.430299999999999     -6.5659400000000003      3.9697300000000002
    19   4     -26.183599999999998     -5.5530799999999996      3.5990600000000001
    20   4     -25.796500000000002     -7.2688699999999997      3.3954599999999999
    21   2     -27.633800000000001     -2.9899499999999999      2.7227600000000001
    22   4     -28.070399999999999     -3.7501500000000001      2.0472999999999999
    23   4                -27.0472     -3.4172199999999999      3.5160900000000002
    24   7     -28.711099999999998     -2.3154300000000001      3.4225599999999998
    25   2     -28.296199999999999     -1.0694699999999999      3.6573199999999999
    26   7                -28.9114    -0.18055199999999999      4.2765000000000004
    27   7     -27.119199999999999    -0.74541100000000005      3.0224799999999998
    28   2     -26.888100000000001                 -1.8223      2.0775199999999998
    29   4     -25.792400000000001     -2.0215700000000001      2.0806399999999998
    30   4     -27.191700000000001                 -1.5831                  1.0985
    31   2                -14.8264      2.5800000000000001     -2.2361800000000001
    32   4                -13.8766                 2.19855     -1.7989900000000001
    33   4                 -15.714                 2.18133     -1.8276399999999999
    34   7     -14.850300000000001      2.2926700000000002     -3.6267999999999998
    35   2                 -14.744      3.3932000000000002     -4.3194299999999997
    36   7                 -14.496      3.3576700000000002     -5.5297999999999998
    37   7                -14.6874      4.5177199999999997                -3.60161
    38   2     -14.818199999999999      4.1462399999999997     -2.1801499999999998
    39   4     -15.720700000000001      4.6418299999999997     -1.7314700000000001
    40   4                -13.9582      4.4369800000000001     -1.5668299999999999
    41   2                -20.9833     -7.0831900000000001      18.830400000000001
    42   4     -20.370100000000001     -7.4759500000000001      17.896000000000001
    43   4                -20.5534     -7.7052699999999996                  19.654
    44   7                -22.4329     -7.1754199999999999      18.781199999999998
    45   2     -22.939800000000002     -6.0277000000000003      19.240600000000001
    46   7     -24.164300000000001     -5.8310599999999999      19.220300000000002
    47   7     -21.988700000000001     -5.1215400000000004      19.683900000000001
    48   2                -20.8323     -5.5397100000000004                 18.9255
    49   4     -19.912700000000001     -5.2492000000000001      19.425999999999998
    50   4     -20.843699999999998     -5.1380999999999997      17.976700000000001
    51   2     -17.299600000000002                 11.1279      14.561400000000001
    52   4     -16.635999999999999                 11.9457                 14.8965
    53   4                -18.2013                 11.4742      15.015499999999999
    54   7                -16.8855                -11.6502      15.162599999999999
    55   2     -16.962299999999999                -12.6915      14.287100000000001
    56   7                -16.7669     -13.859299999999999                 14.4407
    57   7                -17.3276      9.4075299999999995                 13.0145
    58   2     -17.296299999999999      10.858000000000001      13.029400000000001
    59   4                -18.1248                 11.2263                 12.3636
    60   4     -16.355799999999999      11.180199999999999      12.496700000000001
    61   2     -20.249199999999998     -1.5546899999999999      17.908999999999999
    62   4     -20.534800000000001    -0.50817100000000004                 17.8367
    63   4                -20.8825     -2.2660100000000001      17.348400000000002
    64   7     -20.271599999999999                -1.80355      19.309699999999999
    65   2                -19.1783     -2.6092200000000001      19.729600000000001
    66   7     -19.133099999999999                -3.24838      20.772200000000002
    67   7     -18.221699999999998                -2.55518      18.787299999999998
    68   2                -18.7668                -1.91428      17.558700000000002
    69   4     -18.834099999999999     -2.6213500000000001      16.772500000000001
    70   4     -18.110499999999998    -0.98533199999999999      17.400500000000001
    71   2     -27.392700000000001                 6.10792                -2.31718
    72   4     -26.537700000000001                 6.33406                -1.63182
    73   4     -27.211600000000001      5.3972699999999998     -3.1484299999999998
    74   7                -27.9163      7.3472499999999998     -3.0362800000000001
    75   2                 -28.875                -13.7692     -2.1918700000000002
    76   7     -29.400200000000002     -12.626300000000001     -2.2777799999999999
    77   7     -29.378599999999999      6.8559900000000003     -1.3407100000000001
    78   2     -28.601500000000001                  5.6818                -1.47366
    79   4     -29.143699999999999      4.8376700000000001     -1.9371100000000001
    80   4                -28.2319      5.2953999999999999    -0.52566900000000005
    81   2     -30.136199999999999     -12.164300000000001                 8.76145
    82   4     -31.240100000000002     -12.330399999999999      8.9613600000000009
    83   4     -29.447600000000001                 -12.936      9.0547799999999992
    84   7                -29.8126     -10.897600000000001      9.4167699999999996
    85   2     -29.253499999999999     -10.016299999999999      8.4795300000000005
    86   7     -28.830500000000001     -8.9394500000000008      8.8042700000000007
    87   7     -29.255800000000001                -10.5456      7.3100500000000004
    88   2     -29.890999999999998     -11.912000000000001      7.2182300000000001
    89   4     -29.153099999999998                -12.5852      6.8838699999999999
    90   4     -30.751300000000001                -11.7478      6.5438799999999997
    91   2     -17.541699999999999     -9.2134800000000006      22.728000000000002
    92   4     -17.723700000000001     -10.212300000000001                 22.2818
    93   4                -17.3735     -9.3097100000000008                 23.8415
    94   7     -18.883199999999999     -8.5750899999999994                 22.6753
    95   2                -18.8063     -7.4172900000000004      21.943200000000001
    96   7     -19.761299999999999     -6.6702000000000004      21.804200000000002
    97   7     -17.551200000000001     -7.2280100000000003      21.462499999999999
    98   2     -16.665700000000001                -8.22729                  21.994
    99   4                -15.9819     -7.7914700000000003                 22.7438
   100   4     -16.141500000000001     -8.8482500000000002      21.257300000000001
   101   2     -20.179600000000001     -5.0284899999999997      8.1468500000000006
   102   4     -19.360600000000002     -5.5599800000000004      8.5917499999999993
   103   4     -20.795300000000001     -5.6256700000000004      7.5319900000000004
   104   7     -19.785399999999999     -3.9123299999999999      7.2549599999999996
   105   2     -20.520800000000001     -2.8109700000000002      7.5905500000000004
   106   7     -20.388100000000001     -1.7204699999999999      7.1140499999999998
   107   7     -21.314299999999999     -2.9963000000000002      8.6642100000000006
   108   2     -21.172599999999999     -4.4006499999999997      9.1206099999999992
   109   4     -22.120000000000001     -4.8947599999999998      9.1701899999999998
   110   4                -20.7376     -4.2032299999999996                 10.1439
   111   2     -25.136299999999999      5.2545400000000004     -6.3640699999999999
   112   4     -26.039899999999999      5.9629099999999999      14.915800000000001
   113   4     -25.274799999999999      4.2178599999999999     -6.4580700000000002
   114   7     -24.724599999999999      5.6415699999999998     -4.9944499999999996
   115   2     -23.834499999999998      6.6624600000000003     -5.1234299999999999
   116   7     -23.388999999999999                 7.35161     -4.2087700000000003
   117   7     -23.249199999999998      6.6415499999999996     -6.3523399999999999
   118   2     -23.899899999999999      5.6406700000000001     -7.2034900000000004
   119   4     -23.265000000000001      4.7793799999999997     -7.1843500000000002
   120   4                -24.0702      6.0450299999999997                 13.2858
   121   2     -38.327599999999997                -13.1486      22.102499999999999
   122   4     -38.831600000000002                -12.2483                  21.756
   123   4     -38.018799999999999     -13.271599999999999      23.150200000000002
   124   7     -37.038800000000002                -13.1465      21.417200000000001
   125   2     -37.062100000000001                -13.9481                  20.346
   126   7     -36.114699999999999     -14.082100000000001      19.590499999999999
   127   7     -38.225299999999997                -14.6586                 20.2515
   128   2     -38.964199999999998                -14.4282                 21.5701
   129   4     -38.977200000000003                -15.3949                 22.0062
   130   4     -40.016199999999998                -14.3338      21.258199999999999
   131   2                 -15.134     -9.9814699999999998      17.461400000000001
   132   4                -14.3001     -9.3253199999999996      17.411300000000001
   133   4                -15.0967                -10.6426      16.646599999999999
   134   7                -16.3307     -9.1942500000000003      17.348099999999999
   135   2     -17.326799999999999     -9.6009100000000007      18.162500000000001
   136   7     -18.533200000000001     -9.2822399999999998      18.199400000000001
   137   7                -16.7926                -10.3667      19.190100000000001
   138   2     -15.328099999999999     -10.559100000000001      18.870000000000001
   139   4     -15.145099999999999     -11.655099999999999      19.031500000000001
   140   4     -14.812799999999999     -9.9865100000000009      19.648800000000001
   141   2     -10.053800000000001                -3.20113      5.3817199999999996
   142   4     -9.7543500000000005                -2.49038      4.5684899999999997
   143   4                -32.6496     -3.1471900000000002      5.6624800000000004
   144   7     -30.737400000000001     -2.7765399999999998      6.5476599999999996
   145   2     -29.646599999999999                -3.52887                 6.56013
   146   7                -28.6386     -3.3291900000000001      7.2243199999999996
   147   7     -8.1825899999999994     -4.6285600000000002      5.6987899999999998
   148   2     -9.5346399999999996     -4.6265400000000003      5.1028399999999996
   149   4                -10.2697     -5.3421599999999998      5.6583899999999998
   150   4     -9.4697300000000002     -4.9081099999999998      4.0145600000000004
   151   2     -26.981100000000001     -11.317299999999999      11.813599999999999
   152   4     -27.098099999999999                -10.5062                 12.5449
   153   4     -27.412800000000001     -11.039899999999999                 10.8614
   154   7                -27.7227     -12.476699999999999                 12.1676
   155   2     -26.862400000000001     -13.495699999999999                 12.4948
   156   7     -27.258700000000001                -14.5229                 13.0242
   157   7     -25.566800000000001     -13.227399999999999                 12.2014
   158   2     -25.463699999999999                -11.8469      11.689299999999999
   159   4     -25.035599999999999      9.6852300000000007                 10.6134
   160   4     -24.811299999999999                 10.1828                 12.3804
   161   2     -37.136200000000002     -4.4157599999999997      19.533899999999999
   162   4     -36.439399999999999     -5.2117500000000003      19.204799999999999
   163   4     -38.173200000000001     -4.7818300000000002      19.218499999999999
   164   7     -36.770899999999997     -3.1855699999999998      18.787299999999998
   165   2     -36.999000000000002     -2.1944699999999999      19.644300000000001
   166   7     -15.433999999999999    -0.98716999999999999      19.301400000000001
   167   7     -37.183700000000002     -2.5483600000000002      20.918600000000001
   168   2     -37.008499999999998     -4.0223800000000001      20.968599999999999
   169   4     -37.819800000000001     -4.3592000000000004      21.641200000000001
   170   4     -36.091900000000003     -4.1453100000000003      21.594899999999999
   171   2     -11.796200000000001     -4.4195799999999998      14.611700000000001
   172   4                 -11.106     -5.1577200000000003      14.120699999999999
   173   4     -12.489800000000001     -4.0214499999999997                 13.8828
   174   7     -11.011699999999999     -3.3525299999999998                  15.154
   175   2     -11.494899999999999     -3.0609500000000001      16.410900000000002
   176   7                -11.2004     -2.0317400000000001      17.020199999999999
   177   7     -12.168699999999999     -4.1038600000000001      16.884799999999998
   178   2     -12.418100000000001     -5.0849399999999996      15.847899999999999
   179   4                -13.4251     -5.4679900000000004                 15.8261
   180   4                -11.9322     -5.9592499999999999                 16.1465
   181   2                -21.6785                -11.5762      5.3932700000000002
   182   4     -22.270399999999999                 10.8025      5.0555500000000002
   183   4     -22.301200000000001     -12.465400000000001      5.4209199999999997
   184   7     -21.051200000000001                 10.2737      6.6941199999999998
   185   2     -19.824999999999999                -11.8283      6.7627199999999998
   186   7     -19.177299999999999     -11.778499999999999                 7.75603
   187   7                -19.4407                -12.4069      5.6153399999999998
   188   2                -20.3581     -11.882999999999999      4.5893600000000001
   189   4     -20.439800000000002                -12.6065                 3.80606
   190   4                -19.9742     -10.981400000000001      25.605799999999999
   191   2     -23.947299999999998                 -1.1454      18.287400000000002
   192   4                -22.7758     -1.2963800000000001                  18.413
   193   4     -24.270700000000001   -0.040003499999999997                 18.2713
   194   7                -24.5075     -1.6680299999999999      19.521899999999999
   195   2                -25.4146     -2.6030500000000001                 19.2136
   196   7     -26.251899999999999                -3.10643      20.002400000000002
   197   7                -25.3842     -2.9624299999999999                 17.9422
   198   2     -24.666599999999999     -1.9188700000000001      17.151599999999998
   199   4     -25.402699999999999     -1.2659899999999999      16.603000000000002
   200   4     -24.042400000000001     -2.5248300000000001                 16.5198
   201   2     -22.566800000000001     -3.3036799999999999                 22.7485
   202   4     -22.368400000000001     -2.7271200000000002      23.684999999999999
   203   4                -22.4894                -2.67625      21.881799999999998
   204   7     -23.997900000000001                -3.76111      22.759599999999999
   205   2     -23.973199999999999                -5.17075      22.702100000000002
   206   7                -24.9834     -5.8802599999999998      22.698799999999999
   207   7                -22.7575     -5.7211999999999996                 1.12896
   208   2                -21.7531     -4.5950199999999999                 1.21462
   209   4     -21.117799999999999     -4.7484999999999999                0.372251
   210   4                -21.2651     -4.8616000000000001                 2.13306
   211   2                -10.3348     -8.0825800000000001      19.485900000000001
   212   4     -10.061500000000001     -8.9872999999999994      18.941299999999998
   213   4     -9.5540699999999994     -7.6455299999999999      20.061299999999999
   214   7                -11.4496     -8.5435800000000004      20.450500000000002
   215   2                -12.6286     -8.0376499999999993                 20.0688
   216   7     -13.724600000000001     -8.0730599999999999      20.585599999999999
   217   7     -12.456099999999999     -7.1816199999999997     -2.5540099999999999
   218   2                -11.1508     -7.0501399999999999     -3.0411100000000002
   219   4     -32.372399999999999                -5.95791     -3.0076100000000001
   220   4                -11.1517     -7.5132700000000003     -4.0142100000000003
   221   2                -22.1904                 12.9788                 15.3117
   222   4     -21.567499999999999                 13.4529      14.530900000000001
   223   4     -22.517900000000001      13.694599999999999      16.057700000000001
   224   7     -21.413699999999999      12.120200000000001      16.116700000000002
   225   2     -21.651199999999999      10.803100000000001                 15.8104
   226   7     -21.032499999999999      9.8252500000000005      16.262699999999999
   227   7     -22.744499999999999      10.683299999999999                 14.9879
   228   2     -23.300000000000001                 12.0082      14.773099999999999
   229   4     -24.325099999999999                 12.1212      15.177199999999999
   230   4                -23.5059                 12.1096      13.697100000000001
   231   2                -35.3902      8.4139800000000005      16.267099999999999
   232   4     -36.241500000000002      8.9828399999999995      15.864800000000001
   233   4     -34.844700000000003      8.9678199999999997      17.038900000000002
   234   7                -34.4846      8.1629699999999996                 15.1761
   235   2     -34.642800000000001      6.9352200000000002      14.689299999999999
   236   7                -12.5746      6.4870700000000001                 13.6347
   237   7                -35.4345      6.1779000000000002                 15.5152
   238   2     -35.682499999999997      6.9424200000000003                 16.7227
   239   4     -35.114600000000003      6.4540899999999999                 17.4848
   240   4     -36.721499999999999      6.6832700000000003      17.016200000000001
   241   2                -35.0533     -8.4927100000000006      6.8357099999999997
   242   4     -35.817500000000003     -7.8641300000000003      7.2847600000000003
   243   4     -35.552599999999998     -9.4632900000000006      6.6581299999999999
   244   7                -33.9756     -8.7305299999999999      7.8307200000000003
   245   2     -32.808599999999998     -8.5803899999999995      7.2063199999999998
   246   7     -31.733599999999999     -8.6209100000000003      7.8256699999999997
   247   7     -32.957700000000003     -8.2408099999999997      5.9020599999999996
   248   2     -34.274700000000003     -7.7851900000000001      5.6858599999999999
   249   4     -34.521000000000001     -7.9998800000000001      4.6597099999999996
   250   4     -34.320500000000003     -6.7053599999999998      5.7770799999999998
   251   2     -24.758600000000001     -6.7665899999999999      9.7436500000000006
   252   4     -24.537500000000001     -5.9261600000000003      10.398199999999999
   253   4     -23.850999999999999     -7.1686300000000003      9.2939500000000006
   254   7     -25.763500000000001     -6.3254900000000003      8.7264999999999997
   255   2     -27.021899999999999     -6.4458299999999999      9.3563100000000006
   256   7                -28.0167     -5.9293199999999997      8.8310099999999991
   257   7     -27.060600000000001     -7.3456000000000001                 10.3786
   258   2                 -25.628                  -7.782      10.568199999999999
   259   4     -25.495799999999999     -8.9678299999999993                 10.3985
   260   4     -25.430199999999999     -7.5659099999999997                  11.686
   261   2                -26.1082      9.4607200000000002                 17.6524
   262   4     -25.690000000000001      8.9145599999999998      16.811599999999999
   263   4                -27.2256      9.3859899999999996      17.746600000000001
   264   7                -25.7012                 10.9344                 17.4161
   265   2                -24.6813      11.272399999999999                 18.2454
   266   7     -24.111999999999998      12.329000000000001      18.255400000000002
   267   7                -24.3596                 10.2478      19.097300000000001
   268   2     -25.418399999999998      9.3114000000000008      18.988299999999999
   269   4                -26.2014                 9.62866      19.703299999999999
   270   4     -25.104600000000001      8.2954600000000003                 19.1465
   271   2     -30.533799999999999     -7.4179899999999996      11.512600000000001
   272   4     -30.243300000000001                -7.52508                 10.4252
   273   4                -31.6508     -7.2497600000000002      11.604699999999999
   274   7     -29.901700000000002     -6.2625299999999999                 12.1205
   275   2                -28.8904     -6.6682800000000002      12.891500000000001
   276   7                -28.0929     -5.9010499999999997                 13.4277
   277   7     -28.980699999999999     -7.9917800000000003                 13.2074
   278   2     -29.980399999999999                -8.61599      12.261200000000001
   279   4                -30.6494     -9.1874199999999995                 12.9459
   280   4     -29.442299999999999     -9.3397199999999998                 11.6553
   281   2     -35.840000000000003                 11.2498      10.470800000000001
   282   4     -36.656199999999998      10.624000000000001      10.816800000000001
   283   4     -36.186799999999998      12.309799999999999                 10.5345
   284   7     -35.783999999999999                -10.6844      8.9885900000000003
   285   2     -34.629399999999997     -11.335900000000001      8.7011000000000003
   286   7     -34.422600000000003     -12.031499999999999      7.7368899999999998
   287   7     -33.676299999999998     -11.177199999999999      9.6573100000000007
   288   2                -34.4407      10.848699999999999                 10.9145
   289   4     -33.892099999999999                 11.6485      11.377800000000001
   290   4     -34.527000000000001      9.9624000000000006      11.576000000000001
   291   2                -26.1675      6.1347300000000002      5.6289600000000002
   292   4                -26.6675      6.0570300000000001      6.6219700000000001
   293   4     -26.247399999999999      7.1479100000000004      5.2886600000000001
   294   7     -26.985900000000001      5.3811400000000003      4.6365699999999999
   295   2                 -26.206      4.2940699999999996      4.3108000000000004
   296   7                -26.6845      3.3995199999999999      3.5937399999999999
   297   7     -25.013400000000001                 4.25197      4.8408699999999998
   298   2                -24.7545      5.5502900000000004      5.5411299999999999
   299   4     -24.118200000000002      6.1755699999999996      4.8808499999999997
   300   4     -24.193899999999999      5.3379300000000001      6.4072300000000002
   301   2     -25.440300000000001      10.805199999999999      6.2589199999999998
   302   4     -26.288900000000002      11.426600000000001      6.0729899999999999
   303   4     -24.891300000000001      10.614699999999999      5.3746099999999997
   304   7     -26.032499999999999      9.4801900000000003      6.5446999999999997
   305   2     -26.205400000000001      9.3863800000000008      7.8933999999999997
   306   7     -26.823699999999999      8.5185999999999993      8.4704999999999995
   307   7     -25.423500000000001      10.313000000000001      8.5930499999999999
   308   2     -24.627400000000002      11.108599999999999      7.5482500000000003
   309   4                -23.5991      10.773899999999999      7.5548799999999998
   310   4     -24.684100000000001                 12.1378      7.8495200000000001
   311   2     -21.143599999999999     -10.300000000000001      9.7820499999999999
   312   4     -20.322600000000001                -10.0258      9.1332000000000004
   313   4     -21.826899999999998     -10.970800000000001      9.2798800000000004
   314   7     -21.931899999999999     -9.1564099999999993      10.150700000000001
   315   2                -21.5961     -8.7561999999999998      11.427199999999999
   316   7     -21.881900000000002     -7.6699900000000003      11.867599999999999
   317   7                -20.9223     -9.7114600000000006                 12.0328
   318   2     -20.862200000000001                -10.8794                 11.2079
   319   4                -21.6404                -11.5189                 11.5359
   320   4     -19.884899999999998                -11.2874      11.249700000000001
   321   2     -18.694500000000001      4.9951100000000004     -4.2945099999999998
   322   4                -18.5977      5.8436399999999997                -4.98088
   323   4                -18.3766      5.3766499999999997     -3.2902399999999998
   324   7                -39.5702      3.7479399999999998     -4.7545099999999998
   325   2     -40.486800000000002      2.8446600000000002     -5.2242199999999999
   326   7     -40.190399999999997                 1.72797     -5.5692500000000003
   327   7     -41.779899999999998                 3.22193                -5.00556
   328   2     -41.733800000000002      4.4929500000000004     -4.2421699999999998
   329   4                -41.9666                 4.17875     -3.2008299999999998
   330   4     -42.512599999999999      5.1610899999999997     -4.5861499999999999
   331   2     -22.769400000000001      1.4521900000000001                 14.3992
   332   4                -23.6526      1.0623899999999999      14.027900000000001
   333   4     -22.651399999999999      2.4930699999999999                  14.222
   334   7                -21.7196     0.70166200000000001                 13.7735
   335   2                -21.1038                -0.02792      14.735799999999999
   336   7     -20.132899999999999    -0.68451200000000001      14.538500000000001
   337   7     -21.841100000000001   0.0023740599999999999                 15.9247
   338   2     -22.725000000000001      1.1652800000000001      15.874000000000001
   339   4     -22.247800000000002                 1.91377      16.540600000000001
   340   4     -23.750900000000001     0.94670299999999996      16.301100000000002
   341   2     -28.946000000000002      1.0262899999999999                  11.952
   342   4     -28.961400000000001      2.0973199999999999                 11.5618
   343   4                -28.2531     0.43085400000000001      11.342499999999999
   344   7     -30.329799999999999     0.45210299999999998                 11.8893
   345   2                -30.9695     0.89551199999999997                 12.9901
   346   7     -32.153700000000001     0.89598100000000003                 13.2126
   347   7     -30.085899999999999      1.2991200000000001                   13.93
   348   2     -28.727499999999999      1.0456099999999999                 13.4604
   349   4                -28.2499                0.116593      13.832000000000001
   350   4     -28.119700000000002      1.8036300000000001                 13.8383
   351   2                -23.2178     -9.1493000000000002     0.55044899999999997
   352   4                -23.1982     -8.0804200000000002     0.36340499999999998
   353   4                 -23.058     -9.4844299999999997    -0.46519300000000002
   354   7                -24.5885     -9.4966600000000003     0.96405600000000002
   355   2     -24.600300000000001     -9.6254600000000003      2.3295300000000001
   356   7     -25.660399999999999     -9.7705099999999998                 2.89811
   357   7     -23.380400000000002     -9.6188800000000008      2.8881899999999998
   358   2     -22.357500000000002     -9.7187300000000008      1.7317800000000001
   359   4     -21.980899999999998                -10.7273                 1.64666