(written by ASE)

915 atoms
9 atom types

0.0      21.712770568302616  xlo xhi
0.0      21.712770568302616  ylo yhi
0.0      21.712770568302616  zlo zhi

Atoms # atomic

     1   2      14.958600000000001      6.3933499999999999      5.1760000000000002
     2   2                 14.1732      5.2229599999999996      5.9081599999999996
     3   7                 14.9483      4.0324799999999996      5.5677599999999998
     4   2                 16.0793      4.3864299999999998      4.9278500000000003
     5   7      16.886299999999999                 3.53512      4.6019800000000002
     6   7      16.070499999999999      5.7198000000000002      4.5746900000000004
     7   4                 15.3367      7.1284299999999998      5.9533300000000002
     8   4                 14.4163                 6.86165                 4.34619
     9   4      13.167400000000001      5.0525700000000002      5.4868300000000003
    10   4                 14.1654      5.3506999999999998      6.9712899999999998
    11   2      3.7847400000000002                 12.3452      23.949300000000001
    12   2      4.2829199999999998                   13.31      25.040299999999998
    13   7      3.4001299999999999      12.854900000000001      26.117100000000001
    14   2      3.2983500000000001      11.482200000000001      26.046900000000001
    15   7      3.0738400000000001                 10.7675      27.017499999999998
    16   7                 3.42713                 11.1105      24.726199999999999
    17   4                 4.55633                 12.1303      23.206399999999999
    18   4      2.8437800000000002      12.707000000000001      23.521799999999999
    19   4      3.9180700000000002                 14.3256      24.723299999999998
    20   4      5.2746899999999997                 13.2491      25.424600000000002
    21   2      2.8733599999999999      3.3676599999999999      15.716900000000001
    22   2      4.2827099999999998                 2.85209                 15.5114
    23   7      4.5077800000000003                 2.87521                 14.0495
    24   2      3.4316499999999999      3.4013499999999999                 13.4719
    25   7      3.2883399999999998      3.5969600000000002      12.303000000000001
    26   7      2.6020400000000001      4.0430799999999998      14.387499999999999
    27   4      2.7799700000000001      4.1069399999999998                 16.4727
    28   4                 2.15585      2.6171199999999999      15.688499999999999
    29   4      4.3884400000000001      1.7915099999999999                 15.7963
    30   4      5.1559799999999996      3.5252400000000002      15.880100000000001
    31   2                 10.7736    -0.65051199999999998                -1.38409
    32   2      9.7701499999999992     0.33479100000000001                -2.11802
    33   7      10.571099999999999      1.5744100000000001     -2.3363200000000002
    34   2      11.695399999999999                 1.49387                -1.50088
    35   7                 12.5069      2.3667600000000002                -1.43275
    36   7      11.807399999999999     0.29540499999999997    -0.88114999999999999
    37   4                 11.1999                -1.34439     -2.1053799999999998
    38   4      10.291600000000001                -1.31213    -0.63037900000000002
    39   4      9.0096600000000002     0.50426300000000002     -1.3566499999999999
    40   4      9.3207799999999992   -0.060257100000000001                -3.04434
    41   2      7.2961600000000004                  6.2138                 13.4833
    42   2                  7.7138      7.5140700000000002      14.097099999999999
    43   7                 7.02691      7.4493499999999999                 15.4057
    44   2      6.6004899999999997      6.1635200000000001                 15.6778
    45   7      6.1499699999999997      5.8811400000000003      16.740500000000001
    46   7      6.8266200000000001      5.4199900000000003      14.573700000000001
    47   4      8.1650700000000001      5.7125000000000004                 13.0655
    48   4      6.5083200000000003      6.3083400000000003      12.785299999999999
    49   4      7.4440200000000001                 8.44224      13.589700000000001
    50   4      8.8154800000000009      7.5957499999999998                 14.2529
    51   2      11.152699999999999                  1.9214      9.1122899999999998
    52   2                 11.2872      3.2364999999999999      8.2944999999999993
    53   7                 10.1683      3.2631600000000001      7.2994399999999997
    54   2      9.6396999999999995      2.0031599999999998      7.4560000000000004
    55   7      8.6698500000000003                 1.64798                 6.83338
    56   7                 10.0716                  1.2498      8.4803999999999995
    57   4      10.938599999999999                 2.17292      10.145799999999999
    58   4                  12.003                 1.26861      9.1172699999999995
    59   4                 12.2301      3.3289499999999999      7.6894600000000004
    60   4      11.126799999999999      4.1678499999999996      8.9827100000000009
    61   2     -12.440099999999999     -7.2741600000000002                 10.2805
    62   2     -12.898099999999999     -7.5061400000000003      8.9245000000000001
    63   7                -11.6838     -7.9759399999999996      8.2139500000000005
    64   2     -10.849299999999999     -8.5517900000000004      9.1360499999999991
    65   7     -9.8950200000000006     -9.2431400000000004      8.8951799999999999
    66   7     -11.242599999999999     -8.1358899999999998                 10.4238
    67   4                -13.1091     -7.6630200000000004                  11.119
    68   4                -12.0793                -6.27121                 10.3604
    69   4                -13.1699     -6.6051000000000002                 8.39391
    70   4                -13.5646     -8.3386200000000006      8.9667499999999993
    71   2      11.841900000000001      25.834700000000002     -7.3166500000000001
    72   2                 12.2309      24.611699999999999     -6.4764299999999997
    73   7                 12.9992                 23.8139     -7.4404199999999996
    74   2                 12.5358                 24.1678     -8.6774500000000003
    75   7                 12.7584      23.605699999999999     -9.7314399999999992
    76   7      11.719099999999999      25.264900000000001     -8.6196400000000004
    77   4                 12.6204                 26.5745     -7.3091299999999997
    78   4      10.902100000000001      26.329699999999999                -7.10921
    79   4      11.324199999999999      24.077000000000002     -6.2194900000000004
    80   4                  12.801                 24.8443     -5.5772300000000001
    81   2                 6.97668                 12.2895      6.3554599999999999
    82   2      6.7615299999999996                 13.7996                 6.23569
    83   7                 5.90747      14.131500000000001      7.3975900000000001
    84   2      5.5507999999999997                 13.0565      8.0366199999999992
    85   7      4.7027799999999997                 13.0428                 8.94055
    86   7      6.0308700000000002      11.927300000000001      7.4402200000000001
    87   4      8.0434000000000001                 11.9678                 6.57437
    88   4      6.6274199999999999      11.626799999999999      5.5165699999999998
    89   4      6.1914499999999997      14.123100000000001      5.3823600000000003
    90   4      7.6370500000000003                 14.4465      6.3155799999999997
    91   2    -0.36869299999999999                 11.9718      4.5968799999999996
    92   2               -0.196051                 13.1952                 3.65517
    93   7    -0.53517899999999996                 12.6424                 2.39045
    94   2    -0.38892900000000002                 11.2799                 2.47329
    95   7    -0.49756099999999998                 10.6265                 1.47234
    96   7               -0.186194                 10.8048      3.7513800000000002
    97   4                 -1.3708                 11.9892                 5.08908
    98   4     0.34103099999999997                 11.8866      5.4204499999999998
    99   4     0.83862400000000004                 13.6029      3.6160299999999999
   100   4     -1.0126900000000001                  13.885      3.9016700000000002
   101   2      2.5398499999999999      8.2058400000000002      7.2141400000000004
   102   2                 1.66777      7.8562599999999998      6.0324099999999996
   103   7     0.41720699999999999                 7.40456      6.7773700000000003
   104   2     0.45231100000000002      8.1710899999999995      7.8751899999999999
   105   7    -0.48425299999999999      8.4173899999999993      8.6173599999999997
   106   7                 1.60463                 8.82057      8.0990400000000005
   107   4                 3.46773      8.7973800000000004      6.9001000000000001
   108   4      2.9586100000000002      7.3240400000000001      7.7196600000000002
   109   4      1.9845299999999999      7.0573699999999997      5.3727600000000004
   110   4                 1.42953      8.7038100000000007      5.3981599999999998
   111   2     -6.7600800000000003                -1.75925                -2.28809
   112   2     -5.3156999999999996     -1.7740100000000001     -1.8372599999999999
   113   7     -4.9598800000000001     -3.0355799999999999                -2.53525
   114   2     -6.0357799999999999     -3.8256600000000001     -2.6622300000000001
   115   7     -5.8513000000000002     -4.9594800000000001     -3.0751599999999999
   116   7     -7.1749400000000003     -3.1517300000000001     -2.2897799999999999
   117   4     -6.8700299999999999                -1.36381                -3.26376
   118   4     -7.5104100000000003     -1.2117800000000001     -1.6683699999999999
   119   4     -5.1216200000000001     -2.0412499999999998    -0.79281599999999997
   120   4                -4.60562                 -1.0541     -2.1860599999999999
   121   2      22.431799999999999      16.335699999999999                 5.17056
   122   2                 23.8111                 15.7936      5.7325200000000001
   123   7      24.804500000000001      16.714400000000001      5.0890000000000004
   124   2      24.158200000000001                 17.7163      4.5214999999999996
   125   7      24.894200000000001      18.452500000000001      3.8457499999999998
   126   7      22.802900000000001      17.662400000000002      4.5745399999999998
   127   4      21.726500000000001                 16.5229      5.9610599999999998
   128   4      21.989799999999999      15.822800000000001      4.3071000000000002
   129   4      24.049600000000002                 14.7683      5.4530700000000003
   130   4                 23.9407      16.027100000000001      6.8501799999999999
   131   2      11.756399999999999      20.561900000000001                 14.8954
   132   2      11.513999999999999      19.707999999999998      16.167400000000001
   133   7                 11.8605      18.365600000000001      15.670400000000001
   134   2      12.460599999999999      18.409400000000002                 14.4956
   135   7      12.801399999999999      17.414999999999999      13.886799999999999
   136   7      12.632400000000001      19.666399999999999                 14.0816
   137   4                 12.2585      21.492100000000001                 15.0627
   138   4                 10.8444      20.767199999999999      14.316000000000001
   139   4      10.442500000000001                 19.6069      16.421700000000001
   140   4                 12.1868                 19.8276                 17.0473
   141   2      23.749500000000001      25.466100000000001      3.9134899999999999
   142   2      23.906500000000001      24.981300000000001      5.3191800000000002
   143   7                  22.494                 24.7149      5.7531800000000004
   144   2      21.682600000000001      25.187200000000001                 4.77142
   145   7      20.455500000000001      25.277000000000001      4.8068400000000002
   146   7      22.390899999999998      25.680099999999999      3.7641300000000002
   147   4                 24.0379                 24.7699      3.0979999999999999
   148   4      24.299600000000002      26.464400000000001                 3.80166
   149   4      24.350300000000001      25.676500000000001      6.0324200000000001
   150   4                 24.3843                 23.9937      5.5393600000000003
   151   2     -5.6995699999999996      16.486999999999998     -6.4069200000000004
   152   2     -5.1842699999999997      16.345400000000001     -7.7853500000000002
   153   7                -3.90429      17.079899999999999     -7.8124900000000004
   154   2     -3.9656600000000002      18.013000000000002     -6.8402200000000004
   155   7     -3.1193200000000001      18.879899999999999     -6.6833600000000004
   156   7     -5.0811599999999997                 17.8569     -6.0863300000000002
   157   4     -5.2563399999999998      15.726000000000001     -5.6292799999999996
   158   4     -6.8048999999999999      16.649899999999999     -6.4089700000000001
   159   4     -5.8809100000000001                 16.8169     -8.4813100000000006
   160   4                -5.01309                 15.2196     -7.9613500000000004
   161   2    -0.64787099999999997                  12.211      14.508900000000001
   162   2     0.80938900000000003      11.589700000000001                 14.3613
   163   7     0.71320399999999995      10.784700000000001      13.239000000000001
   164   2               -0.593893      10.639200000000001                 12.8264
   165   7    -0.85790200000000005      9.7942699999999991      11.969200000000001
   166   7                -1.41126                 11.5174      13.453099999999999
   167   4    -0.61420300000000005                 13.3118      14.271100000000001
   168   4     -1.1416900000000001                 11.9558      15.457000000000001
   169   4     0.99109899999999995      10.978400000000001      15.254300000000001
   170   4                 1.61154                  12.352      14.196899999999999
   171   2      20.251799999999999      24.913699999999999      21.901299999999999
   172   2      21.381799999999998      23.849699999999999      21.830300000000001
   173   7      20.947500000000002                 22.8904      22.829799999999999
   174   2      19.874300000000002      23.263999999999999      23.516200000000001
   175   7      19.395299999999999      22.627700000000001      24.394500000000001
   176   7      19.497599999999998      24.553000000000001      23.043500000000002
   177   4      19.600899999999999                 24.7394      21.043800000000001
   178   4                 20.5383      26.010999999999999      21.972000000000001
   179   4      22.386700000000001                 24.2516      22.055199999999999
   180   4                 21.4389      23.409400000000002      20.854600000000001
   181   2                 15.9604      10.826000000000001                 14.4407
   182   2                 17.1282      11.793900000000001                 14.3498
   183   7      16.673500000000001                 12.7798      13.417899999999999
   184   2                 15.3649                 12.6404                 13.2553
   185   7                 14.6219                 13.4275                 12.6587
   186   7                 14.8063                 11.5359      13.854900000000001
   187   4      15.745799999999999                 10.4541      15.433199999999999
   188   4      16.212499999999999      9.9284700000000008                 13.6569
   189   4                 18.0107      11.285299999999999                 13.9846
   190   4      17.429200000000002                 12.3368      15.260899999999999
   191   2                 15.7774      24.459800000000001      19.771799999999999
   192   2      15.799200000000001      25.183900000000001                 18.4192
   193   7                 14.6304      24.597300000000001      17.735800000000001
   194   2      14.481999999999999                  23.288                  18.302
   195   7      13.682399999999999                 22.4908      17.835599999999999
   196   7      15.265599999999999      23.049099999999999      19.370200000000001
   197   4                 15.0587                 24.8584      20.494800000000001
   198   4                 16.6922      24.309799999999999      20.168500000000002
   199   4      16.688199999999998                 24.9358      17.932600000000001
   200   4      15.686500000000001      26.282299999999999      18.567499999999999
   201   2                 15.7849      15.023999999999999      22.251300000000001
   202   2      17.077300000000001                 15.7745      22.589400000000001
   203   7      17.976099999999999      15.320499999999999      21.565999999999999
   204   2      17.462900000000001                  14.304                 20.8673
   205   7                 18.0976                 13.7903                 19.9556
   206   7      16.124700000000001                 13.9802      21.194299999999998
   207   4                 15.1457      15.761200000000001      21.780100000000001
   208   4      15.414999999999999                 14.5886      23.132000000000001
   209   4                 17.4482      15.541499999999999                 23.6036
   210   4      17.117899999999999      16.828900000000001      22.395700000000001
   211   2      19.439800000000002      16.226299999999998      16.891500000000001
   212   2                 20.7194                 15.7616      17.636500000000002
   213   7                 20.6279                 14.1937                  17.613
   214   2      19.345600000000001                  13.936      17.268000000000001
   215   7      18.925599999999999      12.750400000000001      17.220600000000001
   216   7                 18.6813      15.029400000000001                 16.8416
   217   4      19.553599999999999      16.560099999999998      15.809699999999999
   218   4      18.803100000000001      17.005199999999999      17.327999999999999
   219   4      20.638000000000002      16.146100000000001      18.743500000000001
   220   4      21.645600000000002      16.108899999999998      17.234100000000002
   221   2     -4.2413999999999996      17.707000000000001      6.0919800000000004
   222   2                -2.88916      17.495100000000001      5.5086500000000003
   223   7     -2.6169199999999999      18.816800000000001                 4.89947
   224   2                -3.38462                 19.7255      5.4726299999999997
   225   7     -3.3616600000000001      20.901700000000002      5.1850899999999998
   226   7     -4.2128100000000002                 19.0946      6.4018100000000002
   227   4     -4.4197600000000001      17.034300000000002      6.9499300000000002
   228   4     -5.0283800000000003      17.595700000000001      5.3105200000000004
   229   4     -2.9258600000000001      16.705300000000001      4.7165499999999998
   230   4     -2.0866699999999998      17.082000000000001      6.1512200000000004
   231   2                 11.7524      17.785299999999999      20.936499999999999
   232   2                 11.0893                 17.9496                 22.3291
   233   7      11.084899999999999                 16.5778      22.815000000000001
   234   2                 11.3726      15.709899999999999      21.811599999999999
   235   7      11.205500000000001      14.511100000000001      21.896000000000001
   236   7                 11.8949      16.312799999999999                 20.7972
   237   4                 12.8307      18.158100000000001      20.909099999999999
   238   4                 11.1469      18.228000000000002      20.163399999999999
   239   4      10.036099999999999                 18.2285                 22.2164
   240   4      11.815300000000001      18.523800000000001                 22.9648
   241   2      6.0006500000000003      22.672999999999998                 19.8432
   242   2      5.7858400000000003      23.776599999999998      18.782399999999999
   243   7      4.4456100000000003                 24.2502      19.126899999999999
   244   2      3.7854700000000001      23.358699999999999      19.916499999999999
   245   7      2.6482000000000001      23.375299999999999      20.177299999999999
   246   7      4.7155100000000001      22.416599999999999      20.423999999999999
   247   4      6.6921299999999997      23.032800000000002      20.642099999999999
   248   4      6.4499700000000004      21.708200000000001                 19.4711
   249   4      5.7683099999999996                 23.3917                 17.7319
   250   4      6.5046200000000001                 24.6175      18.902999999999999
   251   2                 19.3172                 19.7347                 1.20116
   252   2      19.720600000000001      18.338000000000001                  1.6152
   253   7      20.212299999999999      17.681100000000001     0.41342099999999998
   254   2      19.927199999999999      18.413399999999999    -0.66940100000000002
   255   7                 20.2179                 18.1755     -1.8251599999999999
   256   7                 19.1555                 19.5184    -0.29465400000000003
   257   4      20.142800000000001      20.401700000000002      1.4260600000000001
   258   4      18.391100000000002      20.133800000000001      1.5061500000000001
   259   4      18.753900000000002      17.789200000000001                 1.89863
   260   4                 20.5763      18.228899999999999                 2.31107
   261   2      3.3980999999999999      13.472300000000001     -3.4013100000000001
   262   2      1.8633599999999999      13.378299999999999                -3.28409
   263   7      1.7182900000000001                 12.7553                -1.96953
   264   2      2.7791999999999999      11.898400000000001     -1.7635000000000001
   265   7      2.7681800000000001      11.064399999999999    -0.88942500000000002
   266   7      3.8565700000000001      12.264799999999999     -2.6726299999999998
   267   4      3.7951000000000001                 14.2882                -2.79813
   268   4                 3.75251      13.579499999999999                -4.43018
   269   4      1.4155599999999999      12.813000000000001     -4.1195399999999998
   270   4      1.4848600000000001                 14.3748     -3.1637599999999999
   271   2                 5.55518      9.1907700000000006                 8.58141
   272   2      6.6667500000000004      9.3284699999999994      9.6486300000000007
   273   7      6.5947699999999996      8.0579900000000002                 10.3788
   274   2      5.9725799999999998      7.1666499999999997      9.6259200000000007
   275   7      5.7532800000000002      6.0074699999999996      9.8784100000000006
   276   7      5.4776600000000002      7.7529300000000001      8.4346300000000003
   277   4      5.9873700000000003      9.5910100000000007                 7.64961
   278   4      4.5762600000000004      9.5927000000000007      8.7602499999999992
   279   4                  6.4821      10.278700000000001                 10.3263
   280   4      7.6882400000000004      9.5256299999999996      9.2329799999999995
   281   2                 7.66981      4.1282800000000002                 11.1874
   282   2      6.3540000000000001      3.7425299999999999      11.814500000000001
   283   7      5.8394899999999996      2.6507800000000001                 10.9762
   284   2      6.7579399999999996      2.3842599999999998      10.004200000000001
   285   7      6.5111100000000004                 1.52847      9.1264599999999998
   286   7      7.8809100000000001      3.0316299999999998      10.132199999999999
   287   4                 8.60928      3.9698199999999999      11.752000000000001
   288   4      7.7213900000000004      5.1396199999999999                 10.7288
   289   4                 5.49369      4.4017499999999998      12.053800000000001
   290   4      6.5859199999999998      3.1909100000000001      12.718999999999999
   291   2                 15.3399      3.3477800000000002      11.154299999999999
   292   2      15.167199999999999      3.4153899999999999      9.6649499999999993
   293   7      14.399900000000001      4.5909300000000002      9.4419599999999999
   294   2      14.302300000000001      5.2624899999999997                 10.5938
   295   7      13.758599999999999      6.3440599999999998      10.540100000000001
   296   7                 14.8256      4.6151499999999999      11.683199999999999
   297   4      16.375299999999999      3.2336399999999998      11.572100000000001
   298   4                  14.677      2.5737899999999998      11.513400000000001
   299   4      14.654299999999999      2.5952700000000002      9.1438500000000005
   300   4                 16.1326      3.4467699999999999      9.1070700000000002
   301   2                 19.8124      8.0808800000000005                 4.09328
   302   2      19.075099999999999      9.0940600000000007      5.0885300000000004
   303   7                 18.3062      8.1621600000000001      5.9436999999999998
   304   2                 18.7547      6.9075300000000004      5.8330599999999997
   305   7      18.491499999999998      5.9406400000000001      6.5226499999999996
   306   7                 19.4954                 6.80565      4.6001500000000002
   307   4      20.887799999999999      8.2199500000000008      4.1586400000000001
   308   4      19.392800000000001      8.0723500000000001      3.0180899999999999
   309   4      18.317299999999999      9.7939399999999992      4.7201599999999999
   310   4      19.722200000000001      9.7383400000000009      5.6809500000000002
   311   2    -0.15732499999999999      18.887499999999999                 13.9968
   312   2      1.2200599999999999                 19.1434                 13.3522
   313   7      2.0298400000000001                 18.0319      13.907999999999999
   314   2      1.2077199999999999      17.007200000000001      14.289400000000001
   315   7      1.6039300000000001                 15.9648                 14.7997
   316   7    -0.11698799999999999                 17.4178      14.253299999999999
   317   4    -0.88866900000000004                 19.1297      13.269500000000001
   318   4    -0.38387100000000002                 19.3414      14.980399999999999
   319   4      1.6662300000000001      20.031199999999998                 13.8405
   320   4                 1.20628      19.125299999999999                 12.2507
   321   2      13.528600000000001                -7.37819      18.738700000000001
   322   2      13.512700000000001     -6.7691499999999998      17.328499999999998
   323   7                 14.7538     -7.3668899999999997                 16.7211
   324   2      14.995799999999999     -8.5446100000000005      17.481000000000002
   325   7      15.825100000000001     -9.3721399999999999      17.215399999999999
   326   7                 14.1785     -8.6349900000000002      18.550999999999998
   327   4      12.494899999999999                -7.53139      19.056899999999999
   328   4      14.046099999999999     -6.7437500000000004      19.444299999999998
   329   4                 13.6454     -5.6806900000000002      17.322700000000001
   330   4                 12.6341     -7.1299900000000003      16.649899999999999
   331   2      15.198499999999999      21.038499999999999                 15.7605
   332   2                 15.3993                 21.2349                 14.2592
   333   7                 16.1343      22.502300000000002                 14.1854
   334   2      16.547599999999999      22.846900000000002                 15.4224
   335   7      17.344200000000001      23.716999999999999      15.627800000000001
   336   7                 16.1432                 21.9697      16.334399999999999
   337   4      15.429600000000001      20.014299999999999      16.017600000000002
   338   4      14.238200000000001                 21.3629      16.166499999999999
   339   4                  14.462      21.332100000000001                 13.6919
   340   4      16.095199999999998      20.432600000000001                  13.762
   341   2                 20.0398    -0.35500799999999999      18.513100000000001
   342   2      19.668099999999999    -0.19506799999999999      17.023399999999999
   343   7                 19.8371      1.2724800000000001      16.884899999999998
   344   2      19.715499999999999                 1.86815      18.043299999999999
   345   7      19.709399999999999      3.0862500000000002      18.086300000000001
   346   7      19.588899999999999                 1.02176                 19.1008
   347   4      21.113700000000001               -0.508575      18.762899999999998
   348   4                 19.4786     -1.1316600000000001      18.982399999999998
   349   4                  18.596    -0.48472300000000001      16.766400000000001
   350   4      20.495200000000001    -0.74111199999999999                  16.401
   351   2      6.1614399999999998      8.9579699999999995      3.7882899999999999
   352   2      7.4039299999999999      8.2330199999999998      3.2819500000000001
   353   7      8.3921899999999994      8.6685400000000001      4.2696399999999999
   354   2      7.8112399999999997      9.0515600000000003      5.4291900000000002
   355   7      8.3134999999999994      9.2892200000000003                 6.50753
   356   7      6.4629599999999998      9.1543700000000001      5.1775700000000002
   357   4      5.1895499999999997      8.3528800000000007      3.8810099999999998
   358   4      6.0661300000000002      9.9102499999999996      3.2621799999999999
   359   4      7.7778999999999998                 8.66845      2.3635000000000002