(written by ASE)

888 atoms
9 atom types

0.0      21.553999999999998  xlo xhi
0.0      21.553999999999998  ylo yhi
0.0                  21.544  zlo zhi

Atoms # atomic

     1   2     -34.151899999999998                -12.7484                   19.66
     2   4     -35.042400000000001     -12.200100000000001      19.758199999999999
     3   4     -34.424999999999997                -13.7736                 19.9162
     4   7     -33.133000000000003                -12.0604      20.512699999999999
     5   2     -32.075699999999998                -11.6991      19.737400000000001
     6   7     -31.103899999999999                -11.1076      20.155100000000001
     7   7     -32.293700000000001                -12.0694                 18.4345
     8   2                 -33.619                -12.5497      18.264800000000001
     9   4     -33.642600000000002     -13.470700000000001                 17.6157
    10   4     -34.022799999999997                -11.8644      17.595099999999999
    11   2     -26.309799999999999     -6.2878699999999998      5.3423499999999997
    12   4     -25.457000000000001     -6.8831699999999998      5.1150599999999997
    13   4     -26.216899999999999                 15.9688      6.1680299999999999
    14   7     -27.514299999999999     -7.1818799999999996      5.8524799999999999
    15   2     -28.524100000000001     -6.9562999999999997      5.0507900000000001
    16   7     -29.613499999999998                -7.49681      5.2583700000000002
    17   7     -28.276499999999999     -6.0577800000000002      4.0504199999999999
    18   2     -26.929300000000001     -5.6106199999999999      4.0838999999999999
    19   4     -27.011199999999999     -4.5009300000000003      4.2205300000000001
    20   4     -26.565300000000001     -5.7918099999999999      3.0589200000000001
    21   2     -25.976700000000001    -0.47511999999999999      1.8087899999999999
    22   4                -25.1264                0.144454                 1.43729
    23   4     -26.564299999999999    -0.83381099999999997     0.91477399999999998
    24   7                -26.8522     0.46112599999999998      2.5500600000000002
    25   2     -27.223800000000001    -0.16697300000000001                 3.79386
    26   7                -28.0747                0.262098                 4.55267
    27   7     -26.556000000000001     -1.3049200000000001      3.9560300000000002
    28   2                -25.6585     -1.5739099999999999      2.8453200000000001
    29   4                -25.9754     -2.6168499999999999                 2.55857
    30   4     -24.630199999999999     -1.6086499999999999      3.2313800000000001
    31   2     -16.098299999999998                 3.09457                -1.65934
    32   4     -16.914899999999999      3.3028599999999999    -0.90697099999999997
    33   4                -15.1435      2.8118699999999999     -1.1246499999999999
    34   7                -15.8293      4.1228600000000002                -2.58847
    35   2                -16.1797      3.7220599999999999     -3.8445399999999998
    36   7     -16.151700000000002                 4.46305     -4.8186499999999999
    37   7     -16.581900000000001      2.4551500000000002     -3.8829099999999999
    38   2                -16.5044      1.8747499999999999     -2.5272399999999999
    39   4                 -15.685                 1.16814     -2.5184899999999999
    40   4                -17.4832                 1.47983                -2.13287
    41   2                -21.2102     -5.4402600000000003      18.058599999999998
    42   4     -20.616499999999998     -4.4938700000000003      18.233499999999999
    43   4     -20.758700000000001     -5.9061199999999996      17.169899999999998
    44   7     -22.646699999999999     -5.2316399999999996                  17.849
    45   2     -23.372800000000002     -5.7677699999999996      18.891400000000001
    46   7     -24.572199999999999     -5.7819200000000004      18.902100000000001
    47   7                -22.6191     -6.4157000000000002      19.774999999999999
    48   2     -21.286300000000001                -6.43703      19.284400000000002
    49   4     -20.910599999999999     -7.4422100000000002                 18.9345
    50   4                -20.5625     -6.0866400000000001                 20.0532
    51   2     -17.527799999999999      11.507199999999999      14.234299999999999
    52   4     -16.626999999999999                 11.4815      14.930199999999999
    53   4     -18.090299999999999                 12.4763                 14.5746
    54   7     -18.450199999999999                -11.2067                 14.3774
    55   2     -18.357700000000001     -11.936199999999999                 13.2524
    56   7     -18.924399999999999                -12.9894                 13.1403
    57   7                -17.4849                 10.2265      12.325699999999999
    58   2     -17.130299999999998                 11.5505      12.751799999999999
    59   4     -17.808499999999999      12.305099999999999      12.226800000000001
    60   4     -16.016200000000001                 11.6709                 12.4628
    61   2     -18.580500000000001                -1.39432      18.509899999999998
    62   4     -18.395700000000001    -0.46492899999999998      19.087900000000001
    63   4     -19.171900000000001                -1.25464      17.562200000000001
    64   7     -19.307400000000001                -2.30768      19.456600000000002
    65   2     -18.460599999999999     -3.1050499999999999      20.119399999999999
    66   7     -18.683399999999999     -3.7995299999999999      21.074400000000001
    67   7     -17.281400000000001                -3.17963      19.455300000000001
    68   2                -17.3733     -2.2922799999999999                 18.2468
    69   4     -17.565899999999999                -3.02494      17.438300000000002
    70   4     -16.450299999999999     -1.6946300000000001      18.103200000000001
    71   2     -28.046099999999999      8.0227500000000003     -2.2464900000000001
    72   4     -28.567900000000002      8.5497300000000003                -1.39479
    73   4     -27.086099999999998      8.4324399999999997     -2.6142400000000001
    74   7     -29.130700000000001      7.9244000000000003     -3.2739400000000001
    75   2                -29.9315                -14.6533     -2.9762499999999998
    76   7     -31.076799999999999     -14.780099999999999     -3.3749099999999999
    77   7     -29.329699999999999                 6.00319     -2.0330300000000001
    78   2     -27.914899999999999      6.5794600000000001     -1.8218099999999999
    79   4     -27.301100000000002      5.8841999999999999                -2.39452
    80   4     -27.692299999999999      6.4493400000000003    -0.73982899999999996
    81   2                -30.1812     -11.556900000000001      9.8445800000000006
    82   4     -31.141400000000001                -11.7768                 10.3384
    83   4     -29.219899999999999     -12.066000000000001      10.063499999999999
    84   7     -29.994499999999999                -10.0977      10.204499999999999
    85   2     -29.346900000000002     -9.5902200000000004      9.0686800000000005
    86   7     -28.788799999999998     -8.4767600000000005      9.0645900000000008
    87   7     -29.390799999999999     -10.461399999999999      8.0293299999999999
    88   2     -30.297999999999998     -11.509399999999999      8.3492599999999992
    89   4     -30.001799999999999     -12.451599999999999      7.9093600000000004
    90   4     -31.304500000000001     -11.203799999999999      7.9660099999999998
    91   2                -18.9876     -10.005599999999999      23.223700000000001
    92   4     -19.615200000000002                -10.2812      22.391500000000001
    93   4     -19.503499999999999     -10.207000000000001                 24.1952
    94   7     -18.869399999999999     -8.4914100000000001      23.130299999999998
    95   2     -17.574100000000001     -8.1261100000000006      22.976800000000001
    96   7     -17.154399999999999     -7.0271100000000004      22.772600000000001
    97   7     -16.742599999999999     -9.2076700000000002                 22.9405
    98   2     -17.451799999999999                -10.4176                 23.1586
    99   4                -17.1465     -10.901999999999999      24.104500000000002
   100   4                -17.2608                -11.0716                 22.2819
   101   2     -18.945499999999999     -4.6311499999999999      7.6063599999999996
   102   4     -17.866900000000001     -4.6611599999999997      7.2276999999999996
   103   4     -19.562000000000001     -4.9885200000000003      6.7702099999999996
   104   7                 -19.238     -3.2822900000000002      7.9256200000000003
   105   2     -20.162299999999998                -3.17936      8.9247099999999993
   106   7     -20.894100000000002     -2.2857699999999999      9.3053100000000004
   107   7     -20.311299999999999     -4.3838200000000001      9.5399399999999996
   108   2     -19.287199999999999     -5.3362400000000001      8.9625500000000002
   109   4                 -19.724     -6.3386800000000001      8.7307100000000002
   110   4     -18.473700000000001     -5.4217000000000004      9.6856299999999997
   111   2     -26.096599999999999      6.5545200000000001     -5.7347400000000004
   112   4     -26.249199999999998      7.4677800000000003                 15.1427
   113   4     -27.054099999999998      6.1786700000000003     -5.2941399999999996
   114   7     -25.308700000000002      7.1065699999999996     -4.6070900000000004
   115   2     -24.182099999999998      6.3770899999999999                -4.52074
   116   7     -23.320399999999999      6.5708200000000003     -3.6890700000000001
   117   7                -23.9651      5.5310699999999997     -5.5247799999999998
   118   2     -25.221499999999999      5.4774200000000004     -6.2984600000000004
   119   4     -25.734100000000002      4.4581799999999996     -6.2643500000000003
   120   4                -24.8565      5.5832499999999996      14.185700000000001
   121   2     -38.052799999999998     -13.938599999999999      22.531500000000001
   122   4     -38.909399999999998     -13.788500000000001      23.156400000000001
   123   4     -37.199199999999998                -13.4848      23.074100000000001
   124   7                -38.1586                -13.2545                 21.2742
   125   2                -37.3461                 -13.913      20.419499999999999
   126   7     -37.172899999999998                -13.5585      19.268899999999999
   127   7     -36.844299999999997                -15.0421                 20.9069
   128   2                -37.6006     -15.292199999999999                 22.1799
   129   4     -36.972299999999997     -15.928599999999999      22.856200000000001
   130   4                -38.4634     -15.820499999999999      21.921700000000001
   131   2     -16.180199999999999     -8.4572599999999998      18.046299999999999
   132   4     -15.451700000000001     -7.9074600000000004                 17.3459
   133   4     -15.632099999999999     -9.2898899999999998      18.401900000000001
   134   7                -17.2973     -9.0068000000000001      17.218399999999999
   135   2                 -18.433     -8.6790500000000002      17.790900000000001
   136   7     -19.587299999999999     -8.9137799999999991      17.436699999999998
   137   7                 -18.215     -8.0616699999999994                   19.02
   138   2     -16.856400000000001     -7.5235900000000004      19.049299999999999
   139   4                -16.4848     -7.5811200000000003      20.084800000000001
   140   4                -16.8811                 -6.5404      18.603899999999999
   141   2     -8.6116100000000007     -2.7313299999999998      4.0804299999999998
   142   4     -8.3047900000000006     -3.2039300000000002      3.0841099999999999
   143   4     -30.301100000000002                -1.67553                 3.94808
   144   7                -29.1188     -2.9394300000000002      5.0633299999999997
   145   2                 -29.506     -3.9022000000000001      5.8665500000000002
   146   7                -28.7804     -4.4151999999999996                 6.69069
   147   7     -9.2799600000000009                 -4.2885      5.7784599999999999
   148   2     -9.8629300000000004     -3.4153199999999999      4.7670399999999997
   149   4                -10.6629     -2.7220200000000001      5.1247699999999998
   150   4     -10.311199999999999     -4.0769399999999996      4.0090000000000003
   151   2     -25.385300000000001     -12.534599999999999                 11.9641
   152   4     -25.443899999999999                -13.5951                  12.055
   153   4                -24.4605     -12.223100000000001      11.507999999999999
   154   7     -25.396100000000001     -12.018800000000001                 13.3324
   155   2     -26.678100000000001                -11.6638      13.625999999999999
   156   7     -27.060400000000001     -11.513299999999999      14.772600000000001
   157   7     -27.482199999999999                -11.6119      12.516400000000001
   158   2     -26.630099999999999                -11.8748                 11.3964
   159   4     -26.415600000000001      10.645300000000001      10.911899999999999
   160   4                -27.3034      9.0766899999999993                 10.7484
   161   2     -33.861600000000003     -3.0367500000000001                 17.8735
   162   4     -33.025300000000001     -3.7037300000000002      18.036999999999999
   163   4     -33.892200000000003     -2.9090199999999999                 16.8139
   164   7     -33.558700000000002     -1.7437499999999999      18.478100000000001
   165   2     -34.668100000000003                -1.35334      19.156099999999999
   166   7     -13.210599999999999    -0.25758599999999998                 19.7151
   167   7     -35.678100000000001                 -2.2658      19.102599999999999
   168   2     -35.183300000000003                -3.51518      18.541699999999999
   169   4     -35.946300000000001                 -3.9154                 17.7834
   170   4     -34.976199999999999     -4.2141799999999998                 19.3157
   171   2                -12.8614     -5.7064000000000004      15.400399999999999
   172   4                -13.4239     -6.4548199999999998                 15.9603
   173   4                -12.0198     -5.5714600000000001      16.053899999999999
   174   7                -13.6386     -4.5041000000000002                 15.2706
   175   2                -13.8902     -4.2598900000000004      13.946300000000001
   176   7                -14.6035     -3.3783599999999998      13.489699999999999
   177   7                -13.1036     -5.0386800000000003                 13.2044
   178   2     -12.367800000000001     -6.0184300000000004                 13.9802
   179   4     -11.335699999999999     -5.8698899999999998                 13.6302
   180   4                 -12.596     -7.0709299999999997      13.552300000000001
   181   2     -21.513400000000001     -12.119199999999999      4.7821300000000004
   182   4     -21.071200000000001      9.6089900000000004      3.7668400000000002
   183   4     -21.840199999999999                -11.2623      5.4454799999999999
   184   7     -20.558499999999999      8.6247100000000003      5.5630199999999999
   185   2                 -20.727                -14.2385      5.2042299999999999
   186   7     -20.020800000000001     -15.199999999999999      5.5225799999999996
   187   7     -21.915800000000001                -14.3985      4.6052200000000001
   188   2     -22.715199999999999                -13.1554                 4.68879
   189   4     -23.174399999999999                -13.2576      5.6577999999999999
   190   4     -23.372900000000001                -13.1267      25.373200000000001
   191   2                -22.6098                -1.39815      18.321899999999999
   192   4     -22.266500000000001     -2.2278099999999998                 17.6983
   193   4     -21.852799999999998    -0.58306000000000002      18.378399999999999
   194   7     -22.810199999999998     -1.8869100000000001      19.665900000000001
   195   2     -24.083600000000001     -2.3111199999999998      19.851199999999999
   196   7                -24.5032     -3.0128900000000001                 20.7958
   197   7                -24.8126     -1.9274800000000001      18.763500000000001
   198   2     -24.055199999999999    -0.93912300000000004      18.115400000000001
   199   4     -24.195499999999999   -0.058259900000000003      18.741700000000002
   200   4                -24.5854    -0.91913699999999998                  17.137
   201   2     -21.200099999999999     -4.1417099999999998      22.688300000000002
   202   4     -20.616199999999999     -3.4390900000000002                 23.2683
   203   4     -20.777899999999999     -4.1199700000000004      21.694299999999998
   204   7                -22.5764     -3.9077700000000002      22.786200000000001
   205   2     -23.194700000000001     -5.1153599999999999      22.851900000000001
   206   7     -24.465399999999999     -5.1963100000000004      22.851900000000001
   207   7     -22.309000000000001                -6.22879      1.3562099999999999
   208   2     -20.997399999999999     -5.6059599999999996      1.5740499999999999
   209   4     -20.239799999999999     -6.0881499999999997     0.95240599999999997
   210   4                -20.8399     -5.7156000000000002      2.6045699999999998
   211   2                -10.1058     -7.9842399999999998      19.675999999999998
   212   4     -9.3854600000000001     -8.7888199999999994      19.622800000000002
   213   4     -10.149900000000001                -7.60222                 20.7136
   214   7     -11.309100000000001     -8.4372600000000002      19.107600000000001
   215   2                -11.9025                -7.33535      18.455100000000002
   216   7     -13.074999999999999     -7.3859599999999999      18.101400000000002
   217   7     -11.108499999999999                -6.37134     -3.2555800000000001
   218   2     -9.7658900000000006     -6.7755799999999997     -2.8452600000000001
   219   4                -30.8217     -5.9549599999999998                -2.27901
   220   4                -9.32029     -7.1818299999999997     -3.7209099999999999
   221   2                -22.6753                 13.5511                 13.4846
   222   4     -22.831900000000001                 14.5585      13.928599999999999
   223   4                -21.5991                 13.4244                 13.3741
   224   7     -23.145099999999999      13.761799999999999      12.134399999999999
   225   2     -24.214099999999998      12.899900000000001      11.879899999999999
   226   7     -24.857600000000001      12.888400000000001      10.821400000000001
   227   7     -24.470300000000002      12.076499999999999                 12.8819
   228   2     -23.494800000000001                 12.3279                 14.0291
   229   4     -22.977599999999999      11.367699999999999                 14.1884
   230   4     -24.082599999999999                 12.4686                 14.9283
   231   2     -36.189500000000002      8.1075599999999994      16.551400000000001
   232   4     -35.901699999999998      9.1193899999999992      16.794899999999998
   233   4     -36.018900000000002                 7.49763      17.474799999999998
   234   7     -35.477899999999998      7.6001099999999999                 15.3978
   235   2     -36.287399999999998      7.4641900000000003                 14.3375
   236   7     -14.482699999999999      7.2012900000000002                 13.2095
   237   7     -37.563699999999997      7.8888400000000001      14.690099999999999
   238   2     -37.668900000000001      8.0556599999999996                 16.1082
   239   4     -38.371000000000002      7.3494799999999998                 16.4803
   240   4     -38.090600000000002      9.0580800000000004      16.257400000000001
   241   2     -33.968400000000003     -8.3487200000000001      5.8451700000000004
   242   4     -34.302999999999997     -7.6509900000000002      6.6125299999999996
   243   4     -34.390700000000002     -8.0848999999999993      4.8968499999999997
   244   7     -34.306199999999997     -9.6237700000000004                 6.25115
   245   2     -33.177399999999999                -10.3757      6.4735699999999996
   246   7     -33.189599999999999     -11.538600000000001      6.7850299999999999
   247   7                -32.0244     -9.5803799999999999      6.3037200000000002
   248   2                -32.4373     -8.2650600000000001      5.7812900000000003
   249   4     -32.110500000000002     -8.3599800000000002      4.7273699999999996
   250   4     -32.069600000000001     -7.4128999999999996      6.3665399999999996
   251   2     -23.849599999999999     -7.1978799999999996      8.2917000000000005
   252   4     -23.668099999999999     -7.0486000000000004      7.2131400000000001
   253   4     -23.784700000000001     -8.2519600000000004      8.4767499999999991
   254   7                -25.2944     -6.7539199999999999      8.5230899999999998
   255   2     -25.270600000000002     -6.0456500000000002      9.6802700000000002
   256   7     -26.330300000000001     -5.7476799999999999                  10.254
   257   7     -24.069800000000001     -5.6605600000000003      10.109500000000001
   258   2     -23.046500000000002     -6.3085500000000003      9.2617499999999993
   259   4     -22.255700000000001     -6.7486300000000004      9.9187999999999992
   260   4                -22.5566     -5.5747600000000004      8.6779200000000003
   261   2                -25.1966                 10.0419      17.519200000000001
   262   4                -25.0946      9.6187100000000001                 16.4757
   263   4     -26.272300000000001                 10.0578                  17.698
   264   7     -24.802900000000001                 11.4376      17.226099999999999
   265   2                -23.9497      11.929399999999999                  18.145
   266   7     -23.595500000000001      13.075100000000001                 18.1157
   267   7     -23.678899999999999      10.962400000000001      19.154900000000001
   268   2                -24.2029      9.6155899999999992      18.622199999999999
   269   4     -24.740200000000002      9.1281599999999994      19.434799999999999
   270   4                -23.3093      9.0551600000000008      18.305599999999998
   271   2     -29.282499999999999     -7.8898200000000003                 12.3223
   272   4     -29.154499999999999     -7.6464499999999997      11.315899999999999
   273   4     -29.579999999999998     -8.9108099999999997      12.624000000000001
   274   7                -30.2775     -6.9981400000000002                  12.919
   275   2     -29.723500000000001     -6.1256500000000003                 13.7774
   276   7     -30.314699999999998     -5.2760999999999996                 14.4353
   277   7     -28.332799999999999     -6.2700199999999997      13.714700000000001
   278   2     -27.998000000000001     -7.5988600000000002                 13.1797
   279   4                -27.7196     -8.4373000000000005                 13.8902
   280   4     -27.103200000000001     -7.6096399999999997      12.486700000000001
   281   2     -34.728499999999997                 10.9351      10.489599999999999
   282   4                -34.6539                 11.9475      10.087899999999999
   283   4                -34.2117                 10.9086      11.483000000000001
   284   7     -33.981999999999999                -11.5725      9.6276200000000003
   285   2                -34.8416                -12.5806      9.2641299999999998
   286   7     -34.567500000000003     -13.548500000000001      8.6225100000000001
   287   7     -36.102200000000003     -12.362299999999999      9.7842500000000001
   288   2     -36.100900000000003      10.391999999999999                 10.6174
   289   4                -36.3446      9.9827600000000007                 11.6203
   290   4     -36.880600000000001                 11.1256                   10.26
   291   2     -26.035900000000002      6.1347699999999996      5.2379499999999997
   292   4     -26.093900000000001      5.9761100000000003      6.2877799999999997
   293   4     -26.061499999999999      7.2231899999999998      5.0448599999999999
   294   7                -27.1829      5.5943100000000001      4.5630100000000002
   295   2                 -26.747      4.3784400000000003                 4.02081
   296   7                -27.5122      3.5715599999999998                 3.54366
   297   7                -25.4617                 4.32484      4.0127600000000001
   298   2     -24.873899999999999      5.5091700000000001      4.5398899999999998
   299   4     -24.468299999999999      6.0722899999999997      3.6700599999999999
   300   4                -24.0534      5.2932800000000002      5.2565299999999997
   301   2     -25.904599999999999      11.221399999999999      6.4443999999999999
   302   4     -26.661799999999999      11.989800000000001      6.5107699999999999
   303   4     -25.231100000000001                 11.3849      5.5886199999999997
   304   7     -26.547599999999999      9.9392399999999999      6.1435000000000004
   305   2     -26.921199999999999      9.4012499999999992      7.3398000000000003
   306   7     -27.739699999999999      8.5220099999999999      7.4781300000000002
   307   7                -26.1645      9.9175299999999993      8.3529199999999992
   308   2     -25.217099999999999                 10.8916      7.7778700000000001
   309   4                -24.2804                 10.3207      7.6290399999999998
   310   4     -25.183599999999998                 11.7338      8.4458400000000005
   311   2                -21.4711                -10.6851                 10.0829
   312   4                -21.8916     -10.457100000000001      9.0852699999999995
   313   4                -22.1663                -11.3285      10.680999999999999
   314   7     -21.442299999999999     -9.3723500000000008                 10.7014
   315   2     -20.229199999999999     -8.8070299999999992                 10.3353
   316   7     -19.962199999999999     -7.6499800000000002      10.490500000000001
   317   7     -19.423300000000001     -9.7891499999999994      9.8012300000000003
   318   2     -20.031300000000002                -11.0656      9.9222199999999994
   319   4     -19.569900000000001     -11.412000000000001                 10.8855
   320   4     -19.873799999999999                -11.8269      9.1567699999999999
   321   2     -20.654199999999999      3.9641299999999999                -4.34945
   322   4     -21.505500000000001                 4.64459     -4.5050600000000003
   323   4     -19.786799999999999      4.5457599999999996     -4.8179699999999999
   324   7     -42.363900000000001      2.7827199999999999                -5.24756
   325   2     -42.029200000000003                 1.66008     -4.5161800000000003
   326   7     -41.847000000000001     0.57792900000000003     -5.0494199999999996
   327   7     -41.828200000000002                 1.86574     -3.2370999999999999
   328   2     -41.951599999999999                 3.34972                -2.91655
   329   4     -41.087699999999998      3.6776599999999999                -2.37547
   330   4     -42.856200000000001      3.4190900000000002     -2.2793700000000001
   331   2                -24.2318      1.3121499999999999      14.899100000000001
   332   4     -24.283000000000001                 1.61954                 15.9125
   333   4     -25.161799999999999     0.85803700000000005      14.579599999999999
   334   7                -23.2623     0.31822099999999998      14.720700000000001
   335   2     -22.536000000000001     0.56835800000000003                 13.5997
   336   7     -21.727699999999999    -0.15898100000000001      13.147399999999999
   337   7                -22.9451      1.7593300000000001                   13.02
   338   2                 -23.776      2.4478599999999999                  13.952
   339   4                -24.6325      2.9878300000000002                 13.4232
   340   4                -23.0383                 3.09232                 14.4505
   341   2     -29.639299999999999      1.6524099999999999      11.786199999999999
   342   4     -29.591999999999999      2.6450900000000002      11.329000000000001
   343   4     -29.459599999999998                0.902501      11.008100000000001
   344   7     -30.942399999999999      1.4525699999999999                 12.3285
   345   2     -30.928699999999999                  1.2605      13.678900000000001
   346   7                -31.9251                 1.07785                 14.4049
   347   7                -29.6296      1.3233299999999999                 14.1206
   348   2     -28.731200000000001                 1.46753                 13.0213
   349   4                -28.1205     0.55885799999999997                 12.9209
   350   4     -28.080200000000001      2.3872200000000001                 13.1846
   351   2     -23.700099999999999     -9.2669899999999998     0.45210800000000001
   352   4     -23.234400000000001     -8.5140600000000006               -0.173677
   353   4                -24.3277     -9.9211799999999997    -0.16875200000000001
   354   7                -24.4559     -8.7347300000000008      1.5954900000000001
   355   2     -24.351900000000001     -9.5458499999999997      2.6712600000000002
   356   7                -25.0929     -9.4779900000000001                 3.63646
   357   7     -23.258099999999999     -10.368600000000001      2.5623399999999998
   358   2     -22.610700000000001                -10.0016      1.2883199999999999
   359   4     -22.305800000000001     -10.916600000000001     0.78327000000000002