(written by ASE)

888 atoms
9 atom types

0.0      21.553999999999998  xlo xhi
0.0      21.553999999999998  ylo yhi
0.0                  21.544  zlo zhi

Atoms # atomic

     1   2     -33.657800000000002     -13.278700000000001      20.163699999999999
     2   4     -33.616199999999999                -14.0784      20.832599999999999
     3   4     -34.537399999999998                -13.4339      19.396999999999998
     4   7     -32.432699999999997                -13.2422                 19.4407
     5   2     -31.961099999999998     -12.023300000000001                 19.3386
     6   7                -30.9922                -11.6332      18.690000000000001
     7   7     -32.729999999999997                -11.1067                 19.9559
     8   2     -33.758299999999998     -11.824400000000001      20.727799999999998
     9   4     -34.727800000000002                -11.3645      20.527699999999999
    10   4                 -33.561                -11.9376      21.807200000000002
    11   2                 -26.012     -6.9483800000000002      6.5526400000000002
    12   4     -25.073899999999998     -7.4215400000000002      6.5547700000000004
    13   4     -26.000599999999999                 15.6425      6.4121600000000001
    14   7     -26.576899999999998     -7.2884599999999997      7.8634300000000001
    15   2     -27.892900000000001     -7.5603600000000002      7.7126900000000003
    16   7     -28.682600000000001     -7.6754300000000004      8.6552000000000007
    17   7     -28.281700000000001     -7.5242300000000002      6.3951599999999997
    18   2     -27.047000000000001     -7.6052799999999996      5.5958500000000004
    19   4     -27.248699999999999     -7.0778600000000003      4.6638200000000003
    20   4                -26.9099     -8.6558299999999999      5.4229500000000002
    21   2     -27.065799999999999     -2.5873200000000001      4.4267200000000004
    22   4                -26.1875     -2.1474299999999999      3.9319099999999998
    23   4     -27.219999999999999     -3.6360199999999998      4.0527899999999999
    24   7     -28.224399999999999                -1.83996      4.0409699999999997
    25   2     -28.558599999999998    -0.97712100000000002      5.0371499999999996
    26   7     -29.385899999999999    -0.14546700000000001      4.7983900000000004
    27   7                -27.8369                -1.11608      6.1706399999999997
    28   2     -27.133500000000002     -2.4456199999999999      5.9577099999999996
    29   4     -27.822299999999998                -3.19285      6.3963400000000004
    30   4                -26.1418     -2.3961000000000001      6.4071199999999999
    31   2                -15.1471      2.0794999999999999    -0.32252500000000001
    32   4     -16.018599999999999                 1.46183               -0.181752
    33   4                 -14.974      2.6848900000000002     0.56145999999999996
    34   7                -15.3766      2.9885000000000002                -1.39229
    35   2     -14.747999999999999      2.5153799999999999     -2.5441199999999999
    36   7     -14.882400000000001      2.9285600000000001     -3.6750699999999998
    37   7                -13.9468                 1.41842     -2.2584599999999999
    38   2     -14.026999999999999                 1.21394    -0.82642199999999999
    39   4     -13.091799999999999      1.5309900000000001    -0.35665999999999998
    40   4                 -14.084                0.123462    -0.64353499999999997
    41   2     -22.700099999999999     -7.1373100000000003                 17.3447
    42   4                -22.2973     -6.3905399999999997      16.661899999999999
    43   4                -22.6905     -8.0024899999999999                 16.7471
    44   7     -24.084599999999998     -6.7576499999999999                 17.6861
    45   2     -24.311499999999999                -7.11463      18.951899999999998
    46   7     -25.343299999999999     -7.0299899999999997                 19.5426
    47   7     -23.127500000000001     -7.4557900000000004      19.589200000000002
    48   2     -21.999300000000002     -7.1928099999999997                 18.7684
    49   4     -21.269200000000001     -8.0000599999999995      18.849799999999998
    50   4     -21.599799999999998     -6.1981200000000003                 18.9969
    51   2                -15.7918      12.094900000000001                 12.8398
    52   4     -16.104700000000001      13.010300000000001      12.217599999999999
    53   4     -14.690200000000001                 12.1091                 13.0166
    54   7                -15.9725                -10.6843                 11.9293
    55   2     -16.729500000000002                -11.5777      12.609500000000001
    56   7                -17.1403                -12.5121                 11.9702
    57   7                -17.1401      10.382400000000001                 13.7872
    58   2     -16.790199999999999      11.776400000000001      13.978999999999999
    59   4     -16.328499999999998      11.781000000000001      14.973599999999999
    60   4                -17.7437                 12.2943                 14.0535
    61   2                -17.6281                 -4.3754                 17.9041
    62   4     -17.277999999999999                -3.65727      17.226700000000001
    63   4     -17.163900000000002     -5.3310500000000003      17.788699999999999
    64   7     -19.047499999999999     -4.6399699999999999      17.538599999999999
    65   2                -19.9114     -4.1641599999999999      18.384899999999998
    66   7     -21.106200000000001     -4.1391999999999998      18.201899999999998
    67   7                -19.3003     -3.6122399999999999                 19.4878
    68   2     -17.772300000000001     -3.7574200000000002      19.286999999999999
    69   4     -17.441700000000001     -4.3964400000000001      20.121099999999998
    70   4     -17.274799999999999                 -2.7395      19.507899999999999
    71   2     -29.171099999999999      6.0903299999999998     -1.5582400000000001
    72   4     -28.548100000000002      5.4830899999999998    -0.80980099999999999
    73   4     -30.100200000000001      6.4954999999999998     -1.1051200000000001
    74   7     -29.672899999999998      5.1838199999999999     -2.5739800000000002
    75   2     -29.571000000000002     -15.802099999999999     -3.7842699999999998
    76   7     -30.048999999999999     -16.156300000000002                -4.85562
    77   7                -28.9285      6.9842000000000004     -3.7511899999999998
    78   2     -28.471499999999999      7.1728100000000001                -2.35243
    79   4     -28.688500000000001      8.1775900000000004     -1.9652799999999999
    80   4     -27.421099999999999      6.9702599999999997                 -2.3262
    81   2     -30.502700000000001     -12.869999999999999      8.7655700000000003
    82   4     -29.980599999999999     -12.855700000000001      7.8158099999999999
    83   4     -31.399899999999999                -13.5054      8.7821599999999993
    84   7     -30.918399999999998     -11.396699999999999      8.9391800000000003
    85   2                -30.1373     -10.886699999999999      9.8988300000000002
    86   7                -30.1966     -9.6385500000000004      10.132400000000001
    87   7     -29.306999999999999                -11.7319                  10.491
    88   2     -29.638100000000001     -13.093999999999999      10.029199999999999
    89   4     -30.115100000000002                -13.5916                 10.8483
    90   4                -28.5991                 -13.616      9.7848799999999994
    91   2     -20.349299999999999     -8.7859999999999996      22.193899999999999
    92   4                  -20.75     -8.8915400000000009      21.174700000000001
    93   4     -20.778600000000001     -9.5167000000000002      22.935600000000001
    94   7     -20.719999999999999                -7.37148      22.525500000000001
    95   2     -19.665700000000001     -6.5093100000000002      22.232700000000001
    96   7     -19.642299999999999     -5.3016899999999998      22.263100000000001
    97   7     -18.610299999999999                -7.25244                 21.8171
    98   2     -18.825299999999999     -8.7009600000000002      22.174099999999999
    99   4     -18.344999999999999     -9.0561000000000007      23.044899999999998
   100   4     -18.395600000000002     -9.2724200000000003      21.282499999999999
   101   2                -19.6128     -3.5953499999999998      8.2671200000000002
   102   4                -18.7349     -3.5422799999999999      8.9650499999999997
   103   4                -19.3064     -3.8344399999999998      7.2650800000000002
   104   7                -19.8901     -2.1151900000000001      7.9848299999999997
   105   2                -21.2577                -1.91425      7.9401599999999997
   106   7                 -21.782    -0.87509700000000001                  7.6025
   107   7                 -21.965     -3.0479099999999999      8.3929600000000004
   108   2     -20.960999999999999     -4.0279800000000003      8.9182299999999994
   109   4     -21.293600000000001     -5.0314899999999998      8.6830300000000005
   110   4     -20.992699999999999     -3.9864199999999999                 10.0541
   111   2                -25.5989      8.0970899999999997     -7.1136799999999996
   112   4     -25.116599999999998      7.3860200000000003      13.769299999999999
   113   4     -26.172799999999999      8.9709400000000006     -7.5242100000000001
   114   7     -24.560199999999998      8.5235599999999998                -6.22112
   115   2                -24.4437      7.6008500000000003     -5.1798999999999999
   116   7                -23.4941      7.4060800000000002     -4.4655199999999997
   117   7     -25.572600000000001      6.8669200000000004     -5.1867099999999997
   118   2                -26.4879      7.2652000000000001     -6.2211999999999996
   119   4                -27.2971      7.7826199999999996     -5.6881899999999996
   120   4     -26.935400000000001      6.3748100000000001      14.885400000000001
   121   2     -37.918700000000001     -13.651400000000001      20.373899999999999
   122   4     -37.933599999999998                -14.5722      21.023299999999999
   123   4     -37.615699999999997     -13.958600000000001                 19.3689
   124   7     -36.950200000000002                -12.7461                 20.9801
   125   2     -37.475200000000001     -11.508599999999999      21.157399999999999
   126   7     -36.853499999999997     -10.531000000000001      21.563600000000001
   127   7     -38.747100000000003     -11.467000000000001                 20.7666
   128   2     -39.233800000000002     -12.789999999999999      20.430199999999999
   129   4     -39.753399999999999                -12.7706      19.459700000000002
   130   4     -39.990699999999997                -12.9499                 21.2303
   131   2     -15.916399999999999     -7.9687999999999999      19.834499999999998
   132   4     -16.120100000000001     -8.1654999999999998      20.864000000000001
   133   4     -16.037299999999998     -6.8679399999999999      19.670999999999999
   134   7     -16.821100000000001     -8.6702399999999997      19.011900000000001
   135   2                -16.1493     -9.6043099999999999      18.265999999999998
   136   7     -16.650600000000001     -10.429500000000001      17.556999999999999
   137   7                -14.8279     -9.4914900000000006                 18.4605
   138   2                -14.5106     -8.3995200000000008      19.416399999999999
   139   4                -13.9092     -7.6489700000000003      18.951000000000001
   140   4                -13.8703     -8.8946799999999993                 20.2239
   141   2     -9.2671500000000009                -3.59945      6.3868099999999997
   142   4     -8.5136699999999994     -3.5826500000000001      5.6211700000000002
   143   4     -31.506900000000002     -2.7618399999999999      6.1952499999999997
   144   7     -30.084499999999998     -3.2664900000000001      7.6534800000000001
   145   2                -29.8781     -4.4952399999999999      8.2637400000000003
   146   7                -29.1007     -4.6004800000000001      9.1997800000000005
   147   7     -9.0516299999999994     -5.4931999999999999      7.7138600000000004
   148   2     -9.9885099999999998     -4.9371999999999998      6.6623000000000001
   149   4                -11.0586     -4.9217599999999999      6.8206499999999997
   150   4     -9.8440300000000001     -5.4733000000000001      5.7188400000000001
   151   2                 -26.221     -10.368499999999999      9.9167699999999996
   152   4                 -26.343     -9.6525800000000004                 10.7798
   153   4     -27.157499999999999                -10.3165      9.3025099999999998
   154   7                -26.1477     -11.772500000000001                 10.4659
   155   2                -25.2273     -12.465299999999999      9.7002000000000006
   156   7     -25.066800000000001                -13.6462      9.7893299999999996
   157   7     -24.479800000000001     -11.614800000000001      8.9536200000000008
   158   2                -24.8552     -10.252000000000001      9.2471999999999994
   159   4     -24.893000000000001                 11.8055                 8.25305
   160   4                -24.1097      11.755599999999999      9.9187899999999996
   161   2     -35.835500000000003     -4.5072000000000001      21.179600000000001
   162   4     -35.263800000000003     -4.5826099999999999      20.307700000000001
   163   4     -36.177599999999998     -5.5113700000000003                 21.4986
   164   7     -37.011800000000001                -3.71611      20.821400000000001
   165   2     -36.934899999999999                -2.51478      21.407499999999999
   166   7     -16.191700000000001     -1.6178300000000001      21.255299999999998
   167   7     -35.751600000000003     -2.3797000000000001      22.042400000000001
   168   2     -35.229700000000001     -3.6968299999999998      22.251899999999999
   169   4                -35.4497     -4.1325700000000003      23.208400000000001
   170   4     -34.175400000000003     -3.6820300000000001      21.985700000000001
   171   2     -12.790900000000001     -5.6536499999999998      15.416700000000001
   172   4     -12.146800000000001     -6.4965799999999998                 15.7217
   173   4                -12.5304     -5.5137299999999998                 14.3629
   174   7                -12.7392     -4.4558499999999999      16.206399999999999
   175   2                -13.8896     -4.3152299999999997                 16.9145
   176   7                -14.0837                -3.40082      17.707999999999998
   177   7                 -14.706     -5.3513900000000003      16.787600000000001
   178   2     -14.266400000000001     -6.1368900000000002      15.606999999999999
   179   4                -14.9377     -5.8625600000000002                 14.7501
   180   4                -14.3058     -7.2254699999999996                 15.8492
   181   2     -22.042899999999999                -11.6822      3.9255200000000001
   182   4     -22.691800000000001      9.3250899999999994      3.1755900000000001
   183   4     -22.551200000000001     -10.983599999999999      4.6047000000000002
   184   7     -21.093399999999999                 10.6013      3.1127199999999999
   185   2     -19.817599999999999                -11.2028      3.5383200000000001
   186   7     -18.870100000000001     -10.655200000000001      3.0192700000000001
   187   7     -19.744299999999999     -12.184900000000001                 4.48095
   188   2     -21.104800000000001                -12.6214      4.7254800000000001
   189   4                -21.3627                -12.6546      5.7299899999999999
   190   4     -21.188300000000002                -13.5532                 25.8034
   191   2     -24.072800000000001     -2.8391099999999998      18.621300000000002
   192   4     -23.235600000000002     -2.9901200000000001      19.269600000000001
   193   4     -24.614100000000001                -1.97529      18.839200000000002
   194   7                -24.9557     -4.0278900000000002                 18.7303
   195   2     -25.653700000000001     -4.1646999999999998      17.549600000000002
   196   7                -26.6692     -4.7899500000000002      17.533200000000001
   197   7     -25.099599999999999     -3.4473600000000002      16.582000000000001
   198   2                -23.7849                -2.95811      17.136800000000001
   199   4     -23.606999999999999     -1.9534499999999999      16.783000000000001
   200   4                 -22.988     -3.7092399999999999                 16.9406
   201   2     -23.292999999999999                -2.47471                 22.2468
   202   4     -23.119499999999999     -1.9252400000000001                  23.183
   203   4     -23.266999999999999                 -1.7842      21.334900000000001
   204   7     -24.546299999999999     -3.0930300000000002      22.350000000000001
   205   2     -24.588899999999999     -4.3702100000000002                 21.8446
   206   7     -25.595400000000001                -5.00962      21.724399999999999
   207   7                -23.3507     -4.7425699999999997               0.0243793
   208   2     -22.319099999999999     -3.6636500000000001     0.49515500000000001
   209   4     -21.633600000000001     -3.5366599999999999    -0.37281399999999998
   210   4     -21.803000000000001     -4.0123199999999999                 1.40143
   211   2     -10.040900000000001     -8.4820399999999996      18.906700000000001
   212   4     -10.677199999999999     -9.3178400000000003      18.530999999999999
   213   4     -9.0550700000000006     -8.7263999999999999      19.352900000000002
   214   7     -10.888199999999999     -7.7928300000000004                 19.9251
   215   2     -11.092499999999999     -6.5480900000000002      19.626200000000001
   216   7                -11.8316     -5.8071000000000002                 20.2638
   217   7     -10.487500000000001     -6.1645300000000001     -3.0477300000000001
   218   2     -9.8400099999999995                -7.33901     -3.6397200000000001
   219   4     -30.300000000000001     -7.2165999999999997     -3.7266699999999999
   220   4                -10.3131     -7.4380199999999999     -4.6424200000000004
   221   2     -22.659099999999999                 12.0961                 13.5945
   222   4     -22.338699999999999                 13.0685                 13.3225
   223   4                 -22.904                 12.0106      14.696899999999999
   224   7     -21.427199999999999                 11.2798      13.483599999999999
   225   2     -21.768699999999999                 10.0571      13.110200000000001
   226   7     -21.089400000000001      8.9918300000000002      13.175800000000001
   227   7     -23.049299999999999      9.9918200000000006                 12.6934
   228   2     -23.719000000000001                 11.3575                 12.7614
   229   4     -24.734000000000002      11.411199999999999      13.216799999999999
   230   4                -23.6584                 11.7677      11.774699999999999
   231   2     -36.467700000000001      8.3332700000000006      15.771699999999999
   232   4     -36.200299999999999      9.3853399999999993                 15.9465
   233   4     -35.870899999999999      7.7664400000000002      16.477599999999999
   234   7     -36.040500000000002      7.9383600000000003      14.377800000000001
   235   2     -36.886699999999998      6.9441699999999997      13.973000000000001
   236   7     -15.351699999999999      6.2941599999999998                 12.9344
   237   7     -37.892299999999999      6.7282700000000002      14.878299999999999
   238   2     -37.934100000000001      7.9020900000000003                 15.7774
   239   4     -38.468800000000002      7.5485800000000003      16.699000000000002
   240   4     -38.646799999999999      8.5757100000000008                 15.2912
   241   2                -31.8537                -10.3346      5.1400800000000002
   242   4     -32.299300000000002     -10.461600000000001      4.1371599999999997
   243   4                -31.5671     -11.323700000000001      5.4597600000000002
   244   7     -32.787999999999997     -9.8560700000000008      6.0432699999999997
   245   2                -32.2241     -8.8297899999999991      6.7643800000000001
   246   7     -32.804400000000001     -8.2209699999999994      7.6951499999999999
   247   7     -30.970600000000001     -8.4558300000000006                 6.35975
   248   2     -30.639900000000001     -9.3527000000000005                 5.24071
   249   4     -29.636099999999999     -9.7224000000000004      5.4033199999999999
   250   4     -30.691800000000001     -8.7608499999999996      4.3254200000000003
   251   2                  -24.07     -6.8440099999999999                  10.324
   252   4     -24.753699999999998     -7.5787199999999997                 9.92666
   253   4                 -23.012     -6.9215999999999998      9.9139199999999992
   254   7                -24.0304     -7.1440000000000001                 11.7584
   255   2     -23.713200000000001     -6.0661500000000004      12.475300000000001
   256   7     -23.340299999999999     -6.1589700000000001                 13.6159
   257   7     -23.926500000000001     -4.9012799999999999      11.732699999999999
   258   2     -24.450600000000001     -5.3473899999999999      10.434100000000001
   259   4     -23.904699999999998     -4.7210799999999997      9.6823599999999992
   260   4     -25.555900000000001                -5.12751                 10.4054
   261   2     -23.717600000000001      9.1934900000000006                 19.4758
   262   4                -23.0105      9.3902800000000006      20.291499999999999
   263   4     -23.813400000000001      8.1304200000000009      19.240100000000002
   264   7     -23.368500000000001      9.8695599999999999      18.169599999999999
   265   2     -24.358799999999999                 10.8399      17.863900000000001
   266   7     -24.312899999999999                 11.4581                 16.7989
   267   7     -25.269400000000001                 11.0688                 18.8996
   268   2     -25.025700000000001      9.9044500000000006                 19.9438
   269   4                -25.9665      9.3615499999999994                 19.8749
   270   4     -24.849900000000002      10.485799999999999      20.882899999999999
   271   2                -31.7501     -8.2668700000000008      12.624599999999999
   272   4     -31.607299999999999     -8.0131899999999998      11.569800000000001
   273   4     -32.639699999999998     -8.7673100000000002                 12.9017
   274   7     -31.656300000000002                 -7.0038                 13.3874
   275   2     -30.504000000000001     -6.9795199999999999                 14.0616
   276   7     -30.178799999999999     -5.9998899999999997                 14.7972
   277   7                -29.7835     -8.0977599999999992      13.960699999999999
   278   2     -30.535399999999999     -9.0218399999999992      13.120100000000001
   279   4                -30.6723     -9.8960600000000003      13.696099999999999
   280   4                -29.8142                 -9.2965                 12.2966
   281   2                -35.5062                 10.2431      9.3178199999999993
   282   4     -34.685499999999998                 10.6081      9.8379300000000001
   283   4                -36.4465      10.270300000000001      9.9199800000000007
   284   7     -35.246899999999997     -12.646599999999999      8.7522400000000005
   285   2     -34.778199999999998     -12.418100000000001      7.4435900000000004
   286   7     -34.195500000000003                -13.2554                 6.75542
   287   7                 -34.988                -11.1837                 7.06107
   288   2     -35.755200000000002      11.128399999999999                 8.10093
   289   4     -36.834400000000002      11.207599999999999      7.9197800000000003
   290   4     -35.313200000000002      12.110200000000001      8.1213099999999994
   291   2     -25.572199999999999      6.0565100000000003                 5.64215
   292   4                -25.6737      6.2673100000000002      6.6491499999999997
   293   4     -25.083300000000001      6.8739600000000003      5.0897100000000002
   294   7     -26.873999999999999      5.7523900000000001      5.1219700000000001
   295   2                -26.8627      4.5681599999999998      4.4818800000000003
   296   7     -27.803100000000001                 4.09558                  3.8712
   297   7                -25.6187      4.0049799999999998      4.4980799999999999
   298   2     -24.811199999999999      4.7636700000000003      5.4851900000000002
   299   4     -23.906300000000002      4.7974600000000001      5.0776399999999997
   300   4                -24.7501      4.0901699999999996      6.3625499999999997
   301   2     -26.325399999999998      9.4647299999999994      4.6539900000000003
   302   4     -26.152000000000001                 10.0321      3.7179000000000002
   303   4                -26.1998      8.3644300000000005                 4.44651
   304   7     -27.726800000000001      9.8250799999999998      5.1161199999999996
   305   2     -27.693899999999999      10.075100000000001      6.4778700000000002
   306   7     -28.632000000000001      10.531499999999999      7.0811000000000002
   307   7     -26.485399999999998                 10.0465      6.9660700000000002
   308   2     -25.519400000000001      9.9099699999999995                 5.88666
   309   4     -24.810099999999998      9.1896000000000004      6.2826399999999998
   310   4                -24.9373                 10.8605      5.8027300000000004
   311   2     -19.704499999999999     -10.815899999999999      10.315200000000001
   312   4     -20.436599999999999                -11.5604                 10.7951
   313   4     -18.646100000000001                -11.1213      10.406000000000001
   314   7                 -19.677     -9.4673099999999994                 11.1869
   315   2                -20.5974     -8.6590600000000002                 10.6267
   316   7     -21.017800000000001     -7.7384700000000004                 11.2966
   317   7     -21.013400000000001     -9.0679300000000005      9.3516399999999997
   318   2     -20.128399999999999     -10.244400000000001      9.0452499999999993
   319   4     -19.342600000000001     -9.8836300000000001                 8.46678
   320   4     -20.764399999999998                -10.9472      8.4211299999999998
   321   2     -17.872299999999999      4.3437599999999996     -4.5274900000000002
   322   4     -18.822600000000001      4.5382899999999999                -5.02102
   323   4     -17.023099999999999      4.8006799999999998     -5.0388000000000002
   324   7     -39.303400000000003      2.9061599999999999                -4.81982
   325   2     -39.854700000000001      2.2511299999999999                 -3.7698
   326   7     -40.036900000000003                 1.06647     -3.7472300000000001
   327   7     -40.136400000000002      3.1090200000000001                 -2.7561
   328   2     -39.506599999999999      4.4534599999999998     -2.9933100000000001
   329   4     -38.519500000000001      4.5509599999999999     -2.5007199999999998
   330   4     -40.246200000000002      5.1979499999999996                -2.65747
   331   2     -22.192599999999999      4.0407099999999998      16.376100000000001
   332   4                -21.8367      4.9900200000000003      15.996499999999999
   333   4     -22.569800000000001      4.0964200000000002      17.435300000000002
   334   7     -21.258700000000001      2.9003100000000002      16.315000000000001
   335   2     -21.796700000000001      1.8452500000000001      15.668900000000001
   336   7     -21.329699999999999     0.74502299999999999                 15.5463
   337   7     -23.027799999999999      2.1922899999999998                 15.1972
   338   2     -23.347200000000001                 3.62473                 15.3543
   339   4                -24.3949      3.7636099999999999      15.716100000000001
   340   4                -23.2575      4.1284000000000001      14.372299999999999
   341   2                -29.9374      2.7372000000000001      11.511200000000001
   342   4     -29.805900000000001      3.6998500000000001                 10.9422
   343   4     -29.274699999999999                 1.94082                 11.1358
   344   7                -31.3249      2.3461599999999998                 11.2906
   345   2     -32.048200000000001                 2.61124                 12.4343
   346   7                 -33.241                 2.41614                 12.6059
   347   7                -31.2591      3.2325499999999998      13.347300000000001
   348   2                -29.8706      3.0266099999999998                 12.9909
   349   4     -29.390599999999999      2.2347800000000002                 13.5878
   350   4                -29.3874                 3.95688      13.178800000000001
   351   2     -23.607600000000001                -8.77088                  1.4601
   352   4     -23.376100000000001     -8.4007699999999996     0.45433400000000002
   353   4     -22.861799999999999     -9.5771899999999999      1.7150099999999999
   354   7                -24.9695     -9.2424999999999997      1.5013000000000001
   355   2     -25.558700000000002     -8.8945600000000002                 2.61008
   356   7                -26.6724     -9.1847600000000007                 2.97946
   357   7                -24.6645     -8.1582799999999995      3.3674499999999998
   358   2     -23.607099999999999                -7.63497      2.5459299999999998
   359   4     -22.678100000000001                -7.49071      3.1421299999999999