(written by ASE)

915 atoms
9 atom types

0.0      21.712770568302616  xlo xhi
0.0      21.712770568302616  ylo yhi
0.0      21.712770568302616  zlo zhi

Atoms # atomic

     1   2                  14.788      4.5090199999999996      6.4392300000000002
     2   2      15.276999999999999      3.0711599999999999      6.3395599999999996
     3   7                 16.5199                 3.19855      5.5425800000000001
     4   2      16.604600000000001      4.4528600000000003      4.9769500000000004
     5   7      17.358599999999999      4.8767500000000004      4.1051900000000003
     6   7      15.622199999999999      5.2277199999999997      5.4937800000000001
     7   4                 14.9907                 4.92401      7.4604799999999996
     8   4      13.751200000000001                 4.63565      6.1269099999999996
     9   4                 14.5565                 2.35833      5.9115099999999998
    10   4                 15.6083      2.6424099999999999      7.3130100000000002
    11   2      3.3366699999999998                 12.3939                 22.5703
    12   2      3.7940399999999999                 13.2765      23.715900000000001
    13   7      3.6852200000000002      12.545999999999999                 24.9511
    14   2      3.3914300000000002                 11.2584      24.630600000000001
    15   7      3.3177500000000002      10.316800000000001                 25.3842
    16   7      3.2093500000000001                 11.0937      23.299499999999998
    17   4      4.0367300000000004                 12.3362      21.705200000000001
    18   4      2.3309500000000001                  12.645      22.120999999999999
    19   4                 3.05253                 14.1121      23.712700000000002
    20   4      4.7988299999999997                 13.7074      23.678599999999999
    21   2      1.3556299999999999      3.2294299999999998                 15.6355
    22   2      2.6289400000000001      2.7702200000000001      16.239899999999999
    23   7                 3.33101      2.2757399999999999                 14.9842
    24   2                 2.80071      2.9271799999999999                 13.9177
    25   7      3.1808000000000001                 2.66852                 12.7713
    26   7      1.8215300000000001      3.7822499999999999      14.319900000000001
    27   4     0.97121299999999999      4.0697299999999998      16.266100000000002
    28   4     0.52086600000000005                 2.57056      15.472099999999999
    29   4                 2.77372                 1.95583      16.962700000000002
    30   4      3.2876599999999998      3.6118700000000001      16.658999999999999
    31   2      11.856999999999999               -0.380162     -2.0236299999999998
    32   2                 10.9808     0.86076399999999997     -2.0270600000000001
    33   7                 11.3902      1.5496799999999999    -0.83572400000000002
    34   2      12.095000000000001     0.68947400000000003   -0.071370000000000003
    35   7                 12.5893     0.94402799999999998     0.99230200000000002
    36   7      12.221399999999999    -0.49692599999999998    -0.63914099999999996
    37   4      12.804500000000001    -0.20682900000000001     -2.5663999999999998
    38   4      11.324999999999999     -1.2618199999999999     -2.3625099999999999
    39   4      9.9211600000000004     0.61931099999999994     -1.8591200000000001
    40   4      11.245200000000001      1.4233899999999999     -2.9112900000000002
    41   2      8.6948899999999991      5.6803499999999998      14.658799999999999
    42   2      7.3534699999999997      6.2682099999999998                 15.1113
    43   7      6.9338699999999998      5.4448299999999996      16.214300000000001
    44   2      7.8948200000000002      4.5615399999999999      16.525099999999998
    45   7      8.0347200000000001                 3.85825                 17.5304
    46   7      8.8778600000000001      4.5644099999999996      15.579700000000001
    47   4      9.6377600000000001      6.2811700000000004                 14.6602
    48   4      8.7434499999999993      5.2935100000000004                 13.5961
    49   4      6.5699300000000003      6.2625400000000004      14.363099999999999
    50   4      7.4708800000000002      7.3102400000000003      15.408300000000001
    51   2                 10.6088                 3.19171      8.9745000000000008
    52   2                 10.1845      4.0143199999999997      7.7497699999999998
    53   7      9.5777900000000002      3.0115400000000001      6.8873699999999998
    54   2      9.4651800000000001      1.8832599999999999      7.5900699999999999
    55   7      8.8483999999999998     0.97235499999999997      7.1278300000000003
    56   7                 10.0349                 1.92889      8.8076399999999992
    57   4                 10.2036      3.5678000000000001      9.9093400000000003
    58   4                 11.6991                 3.03979      9.0024700000000006
    59   4                 10.9955                 4.42143      7.2062499999999998
    60   4      9.4720200000000006      4.7824299999999997      7.9627699999999999
    61   2     -10.717599999999999     -6.7497800000000003      10.319599999999999
    62   2     -11.713900000000001                -7.29033      9.3225899999999999
    63   7     -11.178100000000001     -8.6630299999999991      8.9975900000000006
    64   2     -10.070600000000001     -8.9178899999999999      9.8063900000000004
    65   7     -9.3535699999999995     -9.9148899999999998      9.7808100000000007
    66   7     -9.8370099999999994     -7.8486900000000004      10.676600000000001
    67   4                -11.0884     -6.3002900000000004      11.262700000000001
    68   4                -10.1145     -5.9477700000000002      9.8512000000000004
    69   4     -11.797800000000001     -6.7696300000000003      8.3941099999999995
    70   4                -12.7491     -7.4297800000000001      9.6516800000000007
    71   2                 11.3347      24.993200000000002     -7.8218199999999998
    72   2                 12.2484                 25.2254     -6.5814700000000004
    73   7      13.501899999999999      24.503499999999999     -6.9143299999999996
    74   2                 13.2639      23.734999999999999     -8.0072500000000009
    75   7      14.114800000000001      23.057200000000002     -8.5230899999999998
    76   7                 11.9718      23.873100000000001     -8.4983500000000003
    77   4                 11.3125      25.814699999999998     -8.5007300000000008
    78   4                 10.3256      24.619900000000001     -7.5925200000000004
    79   4                 11.8552      24.749199999999998     -5.6723299999999997
    80   4                 12.5214      26.279599999999999     -6.4832999999999998
    81   2      7.5987999999999998                 13.8742      5.9276200000000001
    82   2      6.1175199999999998                 14.1737      5.9195000000000002
    83   7      5.6112399999999996      13.558299999999999      7.1810799999999997
    84   2      6.7013800000000003                 13.3226      8.0171700000000001
    85   7      6.6123500000000002                   12.91      9.1649100000000008
    86   7      7.8429099999999998                 13.6684      7.4197199999999999
    87   4      8.2729099999999995                  14.629      5.5930799999999996
    88   4      7.7668299999999997                 12.8362      5.4972799999999999
    89   4      5.6342400000000001                 13.7112      5.0540099999999999
    90   4      5.8957499999999996      15.237299999999999      6.0413899999999998
    91   2    -0.69164800000000004      11.706099999999999      3.9537900000000001
    92   2    0.036212899999999999                 12.7529      3.0768300000000002
    93   7     0.35841200000000001                 12.0223                 1.84406
    94   2               -0.223719      10.783799999999999                 1.96485
    95   7    -0.34494200000000003      9.9628999999999994                 1.08647
    96   7    -0.69389800000000001                 10.5038      3.2216800000000001
    97   4                -1.74823                 11.9856      4.0125400000000004
    98   4    -0.26280700000000001                 11.4733      4.9302900000000003
    99   4                0.964974                 13.2097      3.5127700000000002
   100   4               -0.614981      13.557600000000001                 2.73081
   101   2     0.79651899999999998      6.8673900000000003      6.8532299999999999
   102   2                 1.22648      8.0241199999999999      5.8735200000000001
   103   7     0.32923599999999997      9.0799299999999992      6.0256299999999996
   104   2    -0.51136700000000002      8.7640999999999991      6.9924099999999996
   105   7     -1.5012300000000001      9.4818099999999994      7.1876100000000003
   106   7               -0.196404      7.6010299999999997      7.6669200000000002
   107   4                 1.63887      6.5125099999999998                 7.50373
   108   4     0.41992499999999999      6.0534400000000002      6.2635800000000001
   109   4      1.1985699999999999      7.6254400000000002      4.8244100000000003
   110   4      2.2690600000000001      8.3996899999999997      6.0636000000000001
   111   2     -6.7099000000000002     -1.9452700000000001                -2.54861
   112   2     -5.4874099999999997     -2.8542299999999998                -2.69163
   113   7     -6.0992800000000003     -4.1927599999999998     -2.7502399999999998
   114   2     -7.4264000000000001     -4.0625099999999996                -3.07239
   115   7     -8.1945300000000003     -4.8841799999999997     -3.5972200000000001
   116   7                  -7.891     -2.8502100000000001     -2.7651500000000002
   117   4     -6.8425099999999999     -1.0474000000000001                -3.20607
   118   4     -6.8930199999999999                -1.60389                -1.54772
   119   4     -4.8536999999999999     -2.8445200000000002     -1.8321700000000001
   120   4     -4.9604699999999999     -2.6712400000000001                -3.65415
   121   2                 21.5092                  18.262      3.2584900000000001
   122   2                 22.2026      16.827999999999999      3.6037599999999999
   123   7      23.628399999999999                 17.2285      3.8321999999999998
   124   2                  23.648      18.620899999999999      3.9641199999999999
   125   7                 24.6051      19.319299999999998      4.1926399999999999
   126   7      22.478000000000002      19.199000000000002      3.7246700000000001
   127   4      20.567499999999999      18.475999999999999      3.8367200000000001
   128   4                 21.4224                 18.3551      2.1837300000000002
   129   4      22.190799999999999      16.217500000000001      2.7103000000000002
   130   4      21.903099999999998      16.185199999999998      4.4836499999999999
   131   2      12.050800000000001      18.503499999999999                 15.4672
   132   2      13.194900000000001      19.568999999999999      15.178699999999999
   133   7      14.333500000000001      18.685300000000002                 14.7851
   134   2                  13.887                 17.3779                 14.7501
   135   7                 14.5616      16.411899999999999                 14.4475
   136   7      12.553000000000001      17.258900000000001      15.096299999999999
   137   4                 11.0969      18.635899999999999                 14.9237
   138   4      11.756500000000001      18.482199999999999      16.500699999999998
   139   4                 13.6081      20.105699999999999      16.033200000000001
   140   4                 13.0817      20.301500000000001                 14.3635
   141   2      23.837700000000002                 25.7974                 5.21305
   142   2      22.856000000000002                 24.9176      5.9469900000000004
   143   7      21.876799999999999      24.710699999999999      4.8867399999999996
   144   2      22.045300000000001                 25.6005      3.8600599999999998
   145   7      21.349399999999999                  25.724      2.8826900000000002
   146   7      23.142399999999999                 26.3477      4.0813600000000001
   147   4      24.723400000000002      25.235399999999998      4.8677900000000003
   148   4      24.186399999999999      26.686800000000002      5.7947100000000002
   149   4      22.340699999999998      25.355599999999999      6.8083299999999998
   150   4      23.189599999999999      23.951599999999999      6.3288700000000002
   151   2     -2.6974399999999998                  16.762     -5.0046200000000001
   152   2     -2.7146400000000002                 15.4986     -5.8001899999999997
   153   7     -3.1814900000000002                    15.9     -7.1522699999999997
   154   2     -3.7583500000000001      17.114799999999999     -7.0482699999999996
   155   7     -4.2594099999999999      17.731999999999999                 -7.9638
   156   7     -3.6768299999999998      17.588999999999999     -5.7393599999999996
   157   4                -1.80277      17.268899999999999     -5.0094099999999999
   158   4     -2.9516100000000001      16.692900000000002     -3.9551799999999999
   159   4                 -3.4333      14.733499999999999     -5.4051999999999998
   160   4                -1.74682      14.976800000000001     -5.8674600000000003
   161   2                -1.89497      13.374000000000001                 11.8908
   162   2    -0.38585199999999997                 13.7075                 12.0191
   163   7     0.18213599999999999                  12.426      12.297800000000001
   164   2    -0.71385200000000004      11.434100000000001      11.939500000000001
   165   7    -0.51195199999999996      10.250400000000001                 11.8399
   166   7     -1.9359999999999999                 11.9527      11.704700000000001
   167   4     -2.4490799999999999                 13.8003                 11.0487
   168   4     -2.5713200000000001                 13.5871                 12.7273
   169   4   -0.065379699999999999                 14.4095                 12.8017
   170   4    0.090714900000000001                 14.0075      11.079700000000001
   171   2                 19.6402                 25.0639      21.659500000000001
   172   2      19.382200000000001      23.623200000000001                 21.3492
   173   7      18.632100000000001      23.104299999999999      22.482399999999998
   174   2      18.371300000000002      24.093599999999999                 23.3475
   175   7      17.846800000000002      24.049900000000001      24.452400000000001
   176   7      18.632300000000001      25.346299999999999                 22.7728
   177   4                 19.4162      25.760200000000001      20.886800000000001
   178   4                 20.6494      25.210999999999999      22.096399999999999
   179   4                 20.2742      22.966000000000001                 21.2529
   180   4      18.674900000000001      23.561299999999999                 20.4849
   181   2      17.211500000000001                  10.715      13.756500000000001
   182   2      18.215599999999998                 11.4923                 14.5497
   183   7                 17.9802                 12.8599      14.219900000000001
   184   2      16.682700000000001                 12.9359                 13.8431
   185   7      16.084399999999999      13.936400000000001      13.596399999999999
   186   7      16.109200000000001                 11.6714                 13.7791
   187   4                 16.9086      9.8194499999999998      14.242100000000001
   188   4                 17.4498                 10.5345                 12.6609
   189   4      19.241599999999998      11.255100000000001      14.357799999999999
   190   4                  17.956                    11.4      15.630699999999999
   191   2      14.766500000000001      24.675599999999999      20.477699999999999
   192   2                 15.0108      25.708500000000001                  19.439
   193   7      14.276199999999999      25.209700000000002                 18.2986
   194   2                 14.0817      23.894600000000001      18.437799999999999
   195   7                 13.6805                 23.1174      17.613800000000001
   196   7      14.468400000000001      23.494499999999999      19.660699999999999
   197   4      13.958399999999999      24.827100000000002                 21.1843
   198   4                 15.6526      24.412800000000001      21.016400000000001
   199   4                 16.0975                 25.7377      19.117000000000001
   200   4      14.642099999999999      26.714700000000001                 19.6203
   201   2      13.350300000000001                  13.808                 21.4023
   202   2                 14.5747                 14.5816      21.893699999999999
   203   7                 15.6959      13.749599999999999      21.442799999999998
   204   2      15.221500000000001                 12.9222      20.483000000000001
   205   7      15.778600000000001      12.057499999999999                 19.8261
   206   7                 13.8757      13.098800000000001      20.319900000000001
   207   4      12.652699999999999                  14.558      21.071899999999999
   208   4                 12.9053                 13.2121      22.234000000000002
   209   4                 14.8126                 14.7906      22.944900000000001
   210   4                 14.7395                 15.5306      21.363700000000001
   211   2      20.194900000000001                 15.2692      20.002199999999998
   212   2      19.479600000000001                 14.5825                 21.1463
   213   7      19.310099999999998                 13.2722                 20.5992
   214   2                  19.113                 13.3531                 19.2791
   215   7                 18.6388      12.503399999999999      18.504200000000001
   216   7      19.478400000000001                 14.6022      18.855899999999998
   217   4      21.203099999999999      14.908200000000001                 19.9588
   218   4                 20.1419      16.367899999999999                 19.8736
   219   4      18.499500000000001      15.029299999999999      21.493099999999998
   220   4      20.144500000000001                 14.5046      21.960799999999999
   221   2     -5.2983700000000002      19.300799999999999      5.6433299999999997
   222   2     -4.0278600000000004      18.749300000000002      4.9768499999999998
   223   7                -3.17056                 19.9817      4.7849000000000004
   224   2     -3.6269399999999998                 20.9407      5.6903899999999998
   225   7     -3.1074199999999998      22.039300000000001      5.8516899999999996
   226   7     -4.8061699999999998      20.507200000000001      6.2817999999999996
   227   4     -5.7405299999999997      18.684000000000001      6.4558999999999997
   228   4     -5.9706999999999999      19.643000000000001      4.8755199999999999
   229   4     -4.3601000000000001      18.367100000000001      3.9862299999999999
   230   4                -3.58744      18.029699999999998      5.6523899999999996
   231   2                 11.2014      18.010300000000001      21.062899999999999
   232   2      10.062900000000001                 18.3216      21.942799999999998
   233   7      9.4524600000000003                 16.9573      22.172899999999998
   234   2      10.430300000000001      16.045500000000001      21.890799999999999
   235   7                 10.3535                 14.8338      22.055499999999999
   236   7      11.523099999999999                 16.6191      21.334900000000001
   237   4      12.132999999999999      18.648499999999999      21.073899999999998
   238   4                 10.8344      18.057400000000001                 20.0059
   239   4      9.2343100000000007      18.826699999999999      21.403500000000001
   240   4                 10.3103      18.704499999999999      22.957699999999999
   241   2      5.7409699999999999                 21.9892      20.968299999999999
   242   2      6.7487000000000004      22.522600000000001      19.902100000000001
   243   7      5.8779899999999996      23.287199999999999      18.958500000000001
   244   2      4.6940999999999997                 23.4405      19.506499999999999
   245   7      3.7984300000000002      24.130800000000001      18.999199999999998
   246   7      4.5172999999999996      22.764900000000001      20.691500000000001
   247   4      6.0094000000000003      22.254000000000001      22.012699999999999
   248   4      5.4647399999999999      20.964600000000001      20.829699999999999
   249   4      7.2817400000000001      21.752500000000001      19.313099999999999
   250   4      7.4489900000000002      23.223299999999998                 20.3276
   251   2      18.297499999999999      20.148700000000002                0.546431
   252   2                 18.3049                 18.6051     0.62860700000000003
   253   7      19.212599999999998                 18.2118    -0.53698599999999996
   254   2      19.622399999999999      19.346900000000002                -1.19957
   255   7      20.307500000000001      19.294899999999998     -2.2221199999999999
   256   7      19.109200000000001      20.482800000000001    -0.59850599999999998
   257   4                 18.8569      20.668900000000001      1.3563000000000001
   258   4      17.310700000000001      20.601800000000001     0.36521500000000001
   259   4                 17.2944      18.178699999999999                0.636077
   260   4      18.835599999999999      18.281300000000002      1.5122800000000001
   261   2                 2.34836      13.199199999999999     -5.1692099999999996
   262   2                 1.99196      14.270300000000001     -4.1842199999999998
   263   7      1.8470200000000001      13.442299999999999     -2.9372400000000001
   264   2      2.6341600000000001      12.307399999999999     -3.0975899999999998
   265   7      2.9662199999999999      11.533099999999999     -2.1997900000000001
   266   7      2.9837400000000001      12.162699999999999     -4.3798599999999999
   267   4      3.0729199999999999      13.514900000000001     -5.9393399999999996
   268   4      1.4086799999999999      12.935600000000001                -5.62934
   269   4      1.0344199999999999                 14.8507                -4.17354
   270   4      2.8188599999999999      14.963699999999999     -3.9563700000000002
   271   2      6.9480399999999998      10.274800000000001                 10.3718
   272   2      8.4338300000000004                 10.3383      9.9163300000000003
   273   7      9.0964500000000008      9.5938300000000005      11.026300000000001
   274   2      8.2181599999999992      8.9512800000000006      11.751200000000001
   275   7      8.4421499999999998      8.1814699999999991                 12.6632
   276   7      6.8942300000000003      9.2643699999999995      11.400399999999999
   277   4      6.2389200000000002      9.9715600000000002      9.6132100000000005
   278   4      6.7047800000000004      11.202299999999999      10.918100000000001
   279   4      8.7321399999999993      11.369400000000001      9.9406400000000001
   280   4      8.5314999999999994      9.7111400000000003      8.9963300000000004
   281   2      8.0668399999999991                  2.4516      12.490500000000001
   282   2      6.6233399999999998      2.3376399999999999                 12.7006
   283   7      6.1761200000000001      1.6059399999999999      11.559699999999999
   284   2      7.0950699999999998                 1.67306                  10.589
   285   7      6.8825799999999999                 1.30192      9.4746699999999997
   286   7      8.2039600000000004      2.3142900000000002                 11.0387
   287   4      8.6137599999999992      1.6000700000000001      12.876300000000001
   288   4      8.4752899999999993      3.4316399999999998      12.824199999999999
   289   4      6.0972499999999998      3.3048700000000002                 12.5669
   290   4      6.2188600000000003                 1.82443                 13.5547
   291   2                  15.541                 3.24051                 11.1614
   292   2                 14.9467                 3.87574      9.8998299999999997
   293   7      13.877000000000001      4.8096800000000002                 10.4253
   294   2      14.099399999999999      4.8393600000000001      11.769500000000001
   295   7      13.408300000000001      5.4020799999999998      12.621700000000001
   296   7                 15.1591      4.1271599999999999                 12.1919
   297   4      16.625699999999998      3.4113899999999999                  11.099
   298   4                 15.1816      2.2741500000000001      11.532500000000001
   299   4      14.512700000000001      3.1716199999999999      9.1570300000000007
   300   4      15.703200000000001      4.5244600000000004      9.3850300000000004
   301   2      18.422000000000001      8.3401300000000003      4.3038100000000004
   302   2                 17.6631      8.1575500000000005      5.5487399999999996
   303   7                 18.3553      7.0107400000000002      6.2094399999999998
   304   2                 19.2423      6.4740099999999998      5.4017499999999998
   305   7      19.847000000000001      5.4818800000000003      5.7549200000000003
   306   7      19.334199999999999      7.1342299999999996                 4.25101
   307   4      19.167400000000001      9.1986000000000008      4.2427099999999998
   308   4      17.792300000000001      8.4058799999999998      3.3573300000000001
   309   4                  16.622      7.9335699999999996      5.2747799999999998
   310   4      17.787199999999999      9.0234900000000007      6.2277800000000001
   311   2    -0.43695299999999998                 18.2973      13.222300000000001
   312   2                 0.53225      17.660699999999999      12.225899999999999
   313   7      1.2685200000000001                 16.6723                 13.0467
   314   2     0.66921900000000001      16.525600000000001                 14.2281
   315   7     0.97155400000000003      15.703099999999999      15.071099999999999
   316   7    -0.40101399999999998                 17.3383      14.339600000000001
   317   4     -1.4384999999999999      18.307600000000001      12.851100000000001
   318   4               -0.237676      19.327999999999999      13.520200000000001
   319   4      1.2646500000000001                 18.3886      11.827400000000001
   320   4                0.117199                 17.1096                 11.3841
   321   2      13.658200000000001     -7.8176500000000004      16.741299999999999
   322   2      15.131500000000001     -7.3340199999999998                 16.7471
   323   7                 15.8827     -8.5443599999999993      16.724599999999999
   324   2                 15.0962     -9.6027500000000003      16.807099999999998
   325   7                 15.5688                -10.7357      16.812000000000001
   326   7                  13.814     -9.3148599999999995                 16.8979
   327   4                 13.1629                -7.66174                 15.8027
   328   4                 13.1351     -7.3745200000000004      17.616399999999999
   329   4      15.370200000000001     -6.8610800000000003      17.672899999999998
   330   4                 15.4129                -6.72722                 15.8812
   331   2                 16.3352                 21.7455                 15.4849
   332   2      17.093499999999999      23.007300000000001                 14.9383
   333   7      17.620000000000001      23.661899999999999      16.130500000000001
   334   2      17.271899999999999      22.979399999999998                 17.2441
   335   7      17.495799999999999      23.380099999999999      18.361000000000001
   336   7                 16.6327      21.799099999999999      16.978899999999999
   337   4      16.751999999999999      20.806999999999999      15.055400000000001
   338   4                 15.2583      21.822700000000001                 15.3192
   339   4      16.349399999999999      23.584399999999999                  14.336
   340   4      17.950299999999999                 22.7592                  14.237
   341   2                 20.5046   -0.079572000000000004      17.828299999999999
   342   2                 19.9756     -1.2295700000000001                 16.9588
   343   7      19.691099999999999    -0.55983099999999997      15.632899999999999
   344   2      20.415900000000001     0.59668900000000002                 15.6531
   345   7      20.674700000000001      1.3151299999999999      14.680300000000001
   346   7      20.833500000000001     0.92059299999999999      16.847000000000001
   347   4                 21.3872    -0.32872299999999999                 18.4693
   348   4                 19.6723     0.23949500000000001      18.465199999999999
   349   4      18.996200000000002     -1.6768700000000001                 17.3324
   350   4      20.776499999999999     -2.0203199999999999      16.744199999999999
   351   2      5.7931600000000003                  10.294      5.5456700000000003
   352   2      5.6249000000000002      8.8719599999999996                 4.86388
   353   7      6.7211800000000004      8.0327800000000007      5.4565099999999997
   354   2                 7.46204      8.8695900000000005      6.3177199999999996
   355   7      8.5061699999999991      8.5333000000000006      6.9140199999999998
   356   7      6.9139499999999998                 10.1631      6.4010499999999997
   357   4      4.8826900000000002                 10.5579      6.1266299999999996
   358   4      5.8903800000000004                 11.0959      4.8041999999999998
   359   4                 5.70486      8.9246599999999994      3.7802899999999999