(written by ASE)

915 atoms
9 atom types

0.0      21.712770568302616  xlo xhi
0.0      21.712770568302616  ylo yhi
0.0      21.712770568302616  zlo zhi

Atoms # atomic

     1   2                 14.9415                 4.96122                 5.08005
     2   2                 14.6448      3.4916499999999999      5.0008299999999997
     3   7      15.985300000000001      2.8603000000000001      4.8434799999999996
     4   2      16.860900000000001      3.8216899999999998      4.4379799999999996
     5   7      18.019400000000001      3.6897099999999998      4.2054200000000002
     6   7                 16.2241      5.0252600000000003      4.3809899999999997
     7   4                 15.0693      5.2988600000000003      6.1296099999999996
     8   4      14.162000000000001      5.5986900000000004                 4.53864
     9   4                 14.0221      3.0845899999999999      4.1759300000000001
    10   4      14.307499999999999      3.0538799999999999      5.9371600000000004
    11   2      2.4680200000000001      12.361599999999999      24.127199999999998
    12   2                 3.27664                 13.5001                 24.5884
    13   7      4.2488900000000003      12.888299999999999      25.479600000000001
    14   2      4.3628600000000004      11.617900000000001      25.033999999999999
    15   7      5.2215100000000003                 10.8278      25.350200000000001
    16   7      3.3725100000000001                 11.2712      24.125900000000001
    17   4      2.0388600000000001      12.515000000000001                 23.1572
    18   4                 1.73116                 12.1434                 24.8567
    19   4      2.6176599999999999      14.120200000000001      25.179600000000001
    20   4      3.7388400000000002                 14.1525      23.858599999999999
    21   2      4.4341499999999998                 4.11571      16.472799999999999
    22   2      4.9042000000000003      2.6665000000000001      16.518599999999999
    23   7                 4.81907      2.1958500000000001                 15.1241
    24   2      4.0143599999999999                 3.08352                 14.5044
    25   7      3.4778500000000001      2.8625500000000001      13.425000000000001
    26   7      3.8562699999999999      4.2168799999999997                 15.1751
    27   4      5.2190300000000001      4.7730699999999997                 16.5549
    28   4      3.6396099999999998      4.4638200000000001      17.191700000000001
    29   4      4.3774600000000001                 1.90211      17.161200000000001
    30   4      5.8985200000000004                 2.66926      16.839700000000001
    31   2      11.355600000000001    -0.37384400000000001     -1.8230599999999999
    32   2      9.9277099999999994    0.091086500000000001                -1.91092
    33   7      10.004200000000001      1.5109699999999999     -1.5907500000000001
    34   2      11.203099999999999      1.9141900000000001     -2.1007500000000001
    35   7                 11.5771                 3.02841     -2.3120400000000001
    36   7      11.973800000000001     0.77107300000000001     -2.3821400000000001
    37   4                 11.6252     -1.2690900000000001     -2.4300600000000001
    38   4      11.755100000000001    -0.57650599999999996    -0.82331399999999999
    39   4      9.2226700000000008               -0.254963     -1.1528499999999999
    40   4      9.6132500000000007              -0.0148751     -2.9568500000000002
    41   2      8.4611699999999992      4.4868300000000003                   18.77
    42   2      9.4756099999999996                  5.5099                 18.1614
    43   7      8.4592600000000004      6.3588899999999997                 17.3888
    44   2                 7.16953      6.1209600000000002      17.810300000000002
    45   7      6.1860400000000002      6.6471299999999998      17.382100000000001
    46   7                 7.10975      5.0726199999999997      18.645499999999998
    47   4      8.7077799999999996      4.3331799999999996      19.810500000000001
    48   4                 8.52027      3.5558000000000001      18.185199999999998
    49   4      10.085800000000001                 5.07348      17.428699999999999
    50   4      9.9368099999999995      6.0576699999999999      18.977599999999999
    51   2      11.052300000000001      2.0379999999999998                 5.47607
    52   2                  10.741      3.4663200000000001      5.8190999999999997
    53   7      9.5287000000000006      3.3194599999999999      6.6679500000000003
    54   2      9.7220899999999997                 2.17828      7.3643400000000003
    55   7      9.2302900000000001      1.8904099999999999      8.4320799999999991
    56   7      10.562900000000001                 1.26861      6.6933600000000002
    57   4      12.103300000000001                 1.87066      5.3302800000000001
    58   4                 10.5671      1.6127800000000001      4.5833500000000003
    59   4      10.491400000000001                 4.24092      4.9586499999999996
    60   4                 11.5693      3.9164500000000002                 6.40367
    61   2     -13.084300000000001     -8.7321399999999993      8.7725100000000005
    62   2                -11.9932     -8.1507400000000008      7.7939999999999996
    63   7     -10.842599999999999     -9.0719499999999993      8.1660799999999991
    64   2     -11.026300000000001     -9.4788700000000006      9.3973300000000002
    65   7     -10.068300000000001     -10.068099999999999      9.9938300000000009
    66   7     -12.266400000000001     -9.2198899999999995      9.8986000000000001
    67   4                -13.6629     -9.5321099999999994      8.3906500000000008
    68   4                -13.7483     -7.9001799999999998                 9.19834
    69   4     -11.571199999999999     -7.2545200000000003      8.0731999999999999
    70   4     -12.218999999999999     -8.2522900000000003      6.7788899999999996
    71   2      11.430199999999999      25.683299999999999     -10.286799999999999
    72   2                 12.0405                 24.2652                -10.1454
    73   7      12.390499999999999                 23.9085                -11.5503
    74   2      12.115600000000001                 24.9603                -12.3192
    75   7      12.261699999999999      24.863099999999999     -13.531700000000001
    76   7                 11.6623      26.005099999999999                -11.6806
    77   4      11.980600000000001      26.453700000000001     -9.7096800000000005
    78   4                 10.3157                  25.747                -10.2272
    79   4      11.298299999999999      23.541399999999999     -9.7852499999999996
    80   4                 12.9855      24.207899999999999     -9.6383100000000006
    81   2      6.4928800000000004                 14.4244      6.0584300000000004
    82   2      5.1801500000000003                 15.1989      6.2956899999999996
    83   7      4.3178700000000001      14.296099999999999      7.0199499999999997
    84   2      4.9976099999999999      13.205399999999999      7.3626199999999997
    85   7      4.6257000000000001      12.246499999999999      7.9871100000000004
    86   7      6.2899099999999999                 13.2181      6.9162299999999997
    87   4      7.3607800000000001                 14.9694      6.3944599999999996
    88   4      6.6153599999999999      14.020200000000001      5.0303399999999998
    89   4      4.6238299999999999      15.320399999999999      5.3741500000000002
    90   4      5.3287599999999999      16.148599999999998      6.8513599999999997
    91   2     -2.5509900000000001                 15.1798      2.3515600000000001
    92   2     -3.6616200000000001                 14.4129                 1.63191
    93   7     -2.8847100000000001      13.525399999999999     0.76693100000000003
    94   2                 -1.6615      13.309699999999999                 1.40117
    95   7    -0.95782500000000004                 12.4389                 1.07752
    96   7                -1.46075                 14.1517                 2.44354
    97   4     -2.8005300000000002                 15.4533                 3.37785
    98   4     -2.0743900000000002                  15.959      1.7512300000000001
    99   4     -4.3597900000000003      14.975099999999999                 0.97114
   100   4     -4.2102500000000003                 13.8141      2.3797199999999998
   101   2      2.5516399999999999      10.547000000000001      6.2623199999999999
   102   2                 3.03152      9.8213399999999993      7.5109700000000004
   103   7      1.8096300000000001      9.1002299999999998      7.8692200000000003
   104   2     0.95416500000000004                  9.0442      6.8123199999999997
   105   7     0.10097200000000001      8.1636199999999999      6.7412999999999998
   106   7                 1.24136      9.9895499999999995      5.9162400000000002
   107   4                 3.13687                 10.1928      5.3789300000000004
   108   4      2.3854600000000001      11.606400000000001      6.2961999999999998
   109   4                 3.33284                 10.4191      8.3492700000000006
   110   4                 3.88565      9.2643599999999999      7.3217299999999996
   111   2     -5.6201100000000004     -2.5188899999999999     -2.4380600000000001
   112   2     -5.0925599999999998     -3.9020199999999998     -2.1042200000000002
   113   7     -5.9167800000000002     -4.8406000000000002     -2.8142399999999999
   114   2     -6.8153100000000002     -4.1749099999999997                -3.53986
   115   7     -7.6921799999999996     -4.7236399999999996     -4.1575600000000001
   116   7     -6.8287699999999996     -2.8361700000000001                -3.23475
   117   4     -4.9104999999999999     -1.9871700000000001     -2.9990800000000002
   118   4     -5.9513100000000003     -1.8954200000000001     -1.5612999999999999
   119   4     -5.2035999999999998     -4.1136200000000001     -1.0339700000000001
   120   4     -3.9973200000000002                -4.06074     -2.3089400000000002
   121   2      21.689900000000002      17.746500000000001      4.6727100000000004
   122   2      22.467300000000002      16.439499999999999                 4.35046
   123   7      23.433399999999999      16.451699999999999      5.4756400000000003
   124   2      23.511900000000001                 17.7242      5.9115200000000003
   125   7                 24.3568      18.044499999999999      6.7503900000000003
   126   7      22.642199999999999      18.622199999999999      5.2908600000000003
   127   4                 20.9056      17.663499999999999                 5.46136
   128   4      21.403400000000001                 18.0946      3.6488399999999999
   129   4      22.943200000000001      16.408100000000001      3.3706900000000002
   130   4      21.789000000000001      15.564500000000001      4.4484300000000001
   131   2                 12.0953      19.457000000000001                 16.3568
   132   2                 11.6876      18.089600000000001      15.729799999999999
   133   7      12.646800000000001      17.931100000000001                 14.6646
   134   2      13.168100000000001                 19.1081      14.372999999999999
   135   7                 13.8634      19.251799999999999                 13.3141
   136   7                  12.839                 20.0364      15.289999999999999
   137   4      12.729100000000001      19.271599999999999                 17.2776
   138   4                 11.2278      20.106999999999999      16.564299999999999
   139   4                 10.7057      18.184799999999999                 15.2948
   140   4      11.817299999999999                  17.253                 16.3659
   141   2                 25.0976      25.646699999999999      5.2812200000000002
   142   2      24.701799999999999                 25.5444      6.7824900000000001
   143   7      23.200700000000001                 25.8185      6.7505199999999999
   144   2                  22.814      26.033799999999999      5.4942200000000003
   145   7                 21.6541      26.361000000000001      5.3038999999999996
   146   7                 23.8401                 25.8643      4.5635300000000001
   147   4      25.499400000000001      24.738700000000001      4.9782200000000003
   148   4      25.760100000000001                 26.5015      4.9862599999999997
   149   4      25.125699999999998      26.361799999999999      7.4006100000000004
   150   4      24.738199999999999                 24.5733                 7.29819
   151   2     -5.6726799999999997      17.231999999999999     -7.7386299999999997
   152   2     -4.2654100000000001                 16.5367                -7.92441
   153   7     -3.4057300000000001                 17.5318                -7.28315
   154   2     -4.1648399999999999      18.318899999999999                -6.45852
   155   7     -3.6655799999999998      19.085699999999999     -5.6415300000000004
   156   7                -5.47628      18.162299999999998     -6.6608299999999998
   157   4     -6.4523200000000003      16.536300000000001     -7.5188800000000002
   158   4     -6.0308999999999999      17.819500000000001     -8.5648900000000001
   159   4                -3.96454      16.473099999999999     -9.0510599999999997
   160   4     -4.2121700000000004      15.543799999999999     -7.4477700000000002
   161   2     -1.2807500000000001      15.080500000000001                  14.881
   162   2                0.226493                 14.8902                 14.9503
   163   7     0.47251199999999999                  13.442                  14.677
   164   2    -0.78987399999999997                 12.8459                 14.4979
   165   7    -0.87459900000000002                 11.6995      14.202299999999999
   166   7     -1.7416700000000001      13.734299999999999                 14.5848
   167   4     -1.7022699999999999                 15.7842      14.186199999999999
   168   4                -1.79213      15.308299999999999                 15.8193
   169   4     0.72968999999999995      15.158200000000001      15.875999999999999
   170   4     0.81802200000000003      15.375400000000001                 14.1486
   171   2                 19.4376      24.829699999999999      21.415500000000002
   172   2      20.516999999999999      23.708400000000001                 21.2423
   173   7      20.755199999999999      23.228200000000001      22.580500000000001
   174   2                 20.3567      24.265899999999998      23.405999999999999
   175   7      20.627500000000001      24.315000000000001      24.618500000000001
   176   7                 19.7089      25.208400000000001                 22.7788
   177   4                 18.4556                  24.503                 21.1753
   178   4                 19.5045                 25.7043      20.747299999999999
   179   4      21.459599999999998      24.197600000000001      20.783100000000001
   180   4      20.164400000000001                 22.8415                 20.6189
   181   2      15.961499999999999      10.798400000000001                   14.68
   182   2      17.171900000000001      11.785500000000001      15.027900000000001
   183   7      16.886500000000002      13.025499999999999      14.329000000000001
   184   2                 15.7789                 12.8133      13.613899999999999
   185   7                 15.2135      13.686999999999999                 12.9314
   186   7      15.241099999999999                   11.57      13.710100000000001
   187   4                 15.3529                 10.6358      15.483700000000001
   188   4      16.294899999999998      9.8093299999999992                 14.2296
   189   4      18.079899999999999                 11.4102      14.609500000000001
   190   4                 17.2149                  11.994      16.068200000000001
   191   2      15.884499999999999      24.503900000000002      18.616700000000002
   192   2      14.955500000000001      23.322700000000001      18.784300000000002
   193   7                 15.8032      22.337900000000001      19.385200000000001
   194   2      17.040400000000002                 22.7821      19.666499999999999
   195   7      17.940100000000001      22.114599999999999      20.136199999999999
   196   7                 17.0167      24.159700000000001                 19.4328
   197   4                   15.57                 25.5457      19.032800000000002
   198   4      16.226700000000001      24.657399999999999      17.546800000000001
   199   4      14.585900000000001                 22.8368                 17.8687
   200   4                 14.1272      23.537800000000001      19.483799999999999
   201   2      13.870799999999999      14.481199999999999      20.238800000000001
   202   2                 14.2806      14.906599999999999      21.647099999999998
   203   7                 15.5052      14.160399999999999      21.953600000000002
   204   2      15.481999999999999                 13.0609      21.173200000000001
   205   7                 16.1873                 12.0585      21.290400000000002
   206   7                 14.4444                 13.0975      20.276599999999998
   207   4      14.275700000000001      15.007099999999999                  19.331
   208   4                 12.7385                 14.4862      20.154499999999999
   209   4                 13.5526                 14.3696      22.269600000000001
   210   4      14.416499999999999                 15.9496      21.967700000000001
   211   2      19.389500000000002                 15.2844                 19.7652
   212   2      20.486599999999999      14.389699999999999                 19.1478
   213   7                 19.6724      13.494400000000001                 18.3003
   214   2                 18.3779                  13.526      18.782499999999999
   215   7                 17.5061                 12.7332      18.479399999999998
   216   7      18.129799999999999                   14.56      19.588899999999999
   217   4      19.377199999999998      16.185300000000002      19.130199999999999
   218   4      19.506699999999999                 15.4741      20.871600000000001
   219   4      21.138200000000001      13.773199999999999      19.778300000000002
   220   4                 21.0501      15.001300000000001      18.421800000000001
   221   2     -5.2338300000000002      20.052800000000001      6.3849299999999998
   222   2     -4.2381700000000002                  18.866                  6.0427
   223   7     -3.2326899999999998      19.498899999999999      5.3313699999999997
   224   2                -3.56338      20.796700000000001      5.0781099999999997
   225   7     -2.8323299999999998      21.499199999999998                 4.38131
   226   7     -4.6364200000000002      21.240500000000001      5.7178899999999997
   227   4     -5.1714399999999996      20.372399999999999      7.4121100000000002
   228   4     -6.2811899999999996      19.927700000000002      6.1268799999999999
   229   4     -4.6404199999999998                 17.9922      5.5154699999999997
   230   4     -3.8631500000000001      18.526399999999999                 6.97295
   231   2                 10.6403                 18.3264      22.456600000000002
   232   2      9.2387200000000007      18.067699999999999      23.000900000000001
   233   7      9.3636499999999998      16.592099999999999      23.135899999999999
   234   2      10.391400000000001      16.076699999999999      22.371099999999998
   235   7                 10.5505                  14.869      22.227599999999999
   236   7      11.133100000000001      17.056000000000001      21.851500000000001
   237   4      11.388999999999999      18.500699999999998      23.269300000000001
   238   4                  10.706      19.165700000000001      21.758800000000001
   239   4      8.5069400000000002                 18.1999      22.223400000000002
   240   4      8.8917400000000004                 18.5045                 23.9316
   241   2      6.4981299999999997                 21.9057                 19.9068
   242   2      6.9353600000000002                 23.3277      20.133500000000002
   243   7      5.6429299999999998      23.964200000000002      20.327400000000001
   244   2      4.7330800000000002      23.030899999999999                 20.6309
   245   7      3.6163699999999999      23.284099999999999      21.044499999999999
   246   7      5.2082800000000002      21.800599999999999      20.442799999999998
   247   4                 7.08786      21.139900000000001      20.456600000000002
   248   4      6.4434699999999996                 21.5535      18.833200000000001
   249   4      7.4631499999999997                 23.7852      19.277699999999999
   250   4                 7.56074                 23.5124      21.046099999999999
   251   2      20.033300000000001                 19.8386                 1.70947
   252   2      18.565300000000001      19.375499999999999      1.8503400000000001
   253   7      18.115200000000002      19.231400000000001                0.446156
   254   2      19.102699999999999      19.513100000000001    -0.37432799999999999
   255   7      18.999600000000001      19.417300000000001     -1.6145400000000001
   256   7      20.222799999999999      20.011700000000001     0.27333299999999999
   257   4                 20.6937                 19.0715      2.0055900000000002
   258   4      20.212900000000001      20.782800000000002      2.2576700000000001
   259   4      18.003799999999998      20.085699999999999      2.3211499999999998
   260   4                 18.5641                 18.4297      2.3489200000000001
   261   2      2.1541600000000001      11.805300000000001     -2.7951600000000001
   262   2                 2.22058                 11.5619     -1.2598199999999999
   263   7      1.6702600000000001                 10.1952                -1.09998
   264   2      1.6358600000000001      9.5745799999999992     -2.2778299999999998
   265   7                 1.35833      8.4139599999999994     -2.4029099999999999
   266   7      2.0256799999999999                 10.4154     -3.3517800000000002
   267   4      2.8332799999999998                 12.3543     -3.5011700000000001
   268   4                 1.17974      12.155099999999999     -3.0067699999999999
   269   4      1.6415999999999999                 12.2827    -0.56864599999999998
   270   4      3.2216200000000002      11.437799999999999    -0.88145499999999999
   271   2      6.4582300000000004                 11.1066                 10.8406
   272   2      7.5740800000000004      10.151300000000001      10.638400000000001
   273   7      7.1068499999999997      8.9433500000000006      11.382899999999999
   274   2      5.7766299999999999      9.0785199999999993                 11.4945
   275   7      5.0700700000000003      8.3932599999999997      12.200900000000001
   276   7      5.3144900000000002                 10.1876                  10.869
   277   4      6.3376000000000001      11.699400000000001      9.9384599999999992
   278   4      6.4363299999999999      11.719099999999999      11.772500000000001
   279   4      8.6017399999999995      10.306100000000001      10.943300000000001
   280   4      7.6067299999999998      9.8638399999999997      9.6293000000000006
   281   2      8.0802200000000006      6.1154000000000002                 13.4924
   282   2      6.7552199999999996                 5.69191      14.141299999999999
   283   7      6.3387599999999997      4.5663200000000002      13.327400000000001
   284   2      7.1969799999999999      4.3040700000000003                  12.336
   285   7      7.0393600000000003      3.3988200000000002                  11.484
   286   7      8.1809399999999997      5.2291100000000004                 12.3558
   287   4      9.0394799999999993      5.9045800000000002      14.010899999999999
   288   4      7.8952400000000003      7.1163499999999997                 13.0953
   289   4      6.0378100000000003      6.5510099999999998                 14.0709
   290   4      6.9022199999999998      5.3496199999999998                  15.177
   291   2      16.564699999999998                 3.63537      9.9424600000000005
   292   2                 16.2315      3.1354500000000001      8.4908000000000001
   293   7                 16.5594                 4.32592      7.6641300000000001
   294   2      16.667999999999999      5.4122700000000004      8.4392899999999997
   295   7                 16.8645      6.5518799999999997      8.0258599999999998
   296   7      16.513400000000001      5.0660600000000002      9.8038600000000002
   297   4      17.632000000000001      3.3961899999999998      10.205500000000001
   298   4      15.867599999999999      3.2604299999999999                 10.7003
   299   4      15.119300000000001                 2.85351      8.2558600000000002
   300   4      16.939800000000002                  2.3546      8.2588000000000008
   301   2      19.955100000000002      9.9731199999999998      4.3757299999999999
   302   2                  19.311      9.8383099999999999      5.7695999999999996
   303   7      18.463200000000001      8.6820299999999992      5.6234000000000002
   304   2                   18.73      8.0668699999999998                 4.49038
   305   7                 18.1341      7.0872400000000004      4.1177200000000003
   306   7      19.621500000000001                 8.70824      3.7194500000000001
   307   4      21.010200000000001      10.134600000000001      4.5075799999999999
   308   4      19.494399999999999      10.750299999999999      3.6613899999999999
   309   4      18.771999999999998                 10.6645      6.2309299999999999
   310   4                 20.0626      9.4307999999999996                  6.4192
   311   2   -0.065207100000000004      18.651700000000002                 12.5633
   312   2     0.60467800000000005                 19.8565      13.361499999999999
   313   7     0.89788800000000002      19.287700000000001      14.665100000000001
   314   2     0.14926400000000001      18.216000000000001      14.856199999999999
   315   7               0.0150019                 17.6065                 15.8843
   316   7    -0.45493600000000001      17.800000000000001                 13.6739
   317   4     0.72866500000000001      18.048500000000001                 12.0443
   318   4    -0.90982799999999997                 18.9511      11.935600000000001
   319   4    -0.20593900000000001                 20.5611      13.556800000000001
   320   4                 1.40395                 20.4651                 12.9842
   321   2                 12.5937     -7.7281199999999997      16.284700000000001
   322   2      14.053900000000001     -7.3201099999999997      16.033999999999999
   323   7                 14.8437     -8.4349699999999999      16.643999999999998
   324   2                 13.9415     -9.2922600000000006      17.139399999999998
   325   7      14.262499999999999     -10.402799999999999      17.592400000000001
   326   7                 12.6845     -8.8301599999999993                 17.2882
   327   4      12.123799999999999     -8.1256000000000004      15.358700000000001
   328   4                 12.0831     -6.8931800000000001      16.794499999999999
   329   4      14.316700000000001     -6.3468600000000004                 16.5044
   330   4                  14.362     -7.3529900000000001                 14.9297
   331   2      15.890700000000001      21.351900000000001      14.251799999999999
   332   2                 14.8596      22.123999999999999                 13.4359
   333   7      15.508100000000001      23.504100000000001      13.193300000000001
   334   2      16.678599999999999      23.501300000000001      13.867599999999999
   335   7      17.486999999999998      24.433599999999998                 13.7972
   336   7      16.812200000000001      22.398800000000001      14.709199999999999
   337   4                 16.4786      20.701000000000001      13.601000000000001
   338   4                 15.5395                 20.8766      15.175800000000001
   339   4      13.907500000000001      22.373100000000001      13.826499999999999
   340   4      14.707700000000001                 21.6921                 12.4796
   341   2      19.632100000000001   -0.086864999999999998      17.449000000000002
   342   2      20.708500000000001               -0.482657                 16.4817
   343   7      21.715699999999998     0.56872599999999995      16.625299999999999
   344   2      21.187200000000001                 1.71272      17.163900000000002
   345   7      21.866700000000002                  2.6774      17.238399999999999
   346   7                  19.855                 1.44024                 17.5609
   347   4                 19.7225    -0.59858999999999996      18.344999999999999
   348   4      18.617999999999999    -0.25737199999999999                  16.939
   349   4      20.298200000000001    -0.63188100000000003      15.476599999999999
   350   4      21.183599999999998     -1.3860300000000001                 16.7593
   351   2      6.7126900000000003                 10.0237      5.7466600000000003
   352   2      7.5788599999999997      9.1907599999999992      4.7375499999999997
   353   7      8.7116299999999995      8.7540300000000002      5.5553499999999998
   354   2      8.7976200000000002      9.5099999999999998      6.6797700000000004
   355   7      9.7368799999999993                 9.57151      7.4678599999999999
   356   7      7.6835199999999997      10.295299999999999      6.7972200000000003
   357   4      5.7641200000000001      9.5577799999999993      6.1790799999999999
   358   4      6.4146799999999997      11.014200000000001      5.3785299999999996
   359   4                  7.8929      9.7573899999999991      3.8905400000000001