(written by ASE)

915 atoms
9 atom types

0.0      21.712770568302616  xlo xhi
0.0      21.712770568302616  ylo yhi
0.0      21.712770568302616  zlo zhi

Atoms # atomic

     1   2      15.122999999999999      6.3758299999999997      4.9377000000000004
     2   2                 14.8019      5.2839999999999998      5.9883199999999999
     3   7      15.723599999999999      4.2189699999999997      5.6716899999999999
     4   2      16.283100000000001      4.5083500000000001      4.4813499999999999
     5   7      17.175799999999999      3.7955700000000001      4.0283800000000003
     6   7      15.964700000000001      5.6976500000000003      3.9775499999999999
     7   4                 15.7341      7.1784999999999997                 5.34877
     8   4                 14.1736      6.6173599999999997      4.4468699999999997
     9   4                 13.8056      4.8493399999999998      5.9795999999999996
    10   4                 14.9922      5.6651699999999998      7.0191100000000004
    11   2      3.8495499999999998      12.038399999999999      23.593299999999999
    12   2      4.6299400000000004                 12.6754                 24.7348
    13   7      3.8943099999999999                 12.1037      25.860800000000001
    14   2      3.3293200000000001                 10.8718      25.518000000000001
    15   7                   2.871                 10.0625      26.311900000000001
    16   7                 3.46272                 10.6831      24.161899999999999
    17   4      4.3644100000000003                 11.8931      22.633099999999999
    18   4      2.9104399999999999      12.609999999999999      23.364000000000001
    19   4      4.4179599999999999                 13.7333                 24.7257
    20   4      5.6950700000000003                 12.3955      24.814599999999999
    21   2                 3.06697      2.9721099999999998                 15.6708
    22   2      4.1855700000000002                 2.21888                 14.9451
    23   7                 3.86199      2.2943899999999999                 13.5068
    24   2      2.6181700000000001      2.8440799999999999                 13.4275
    25   7      2.0481799999999999      2.9594499999999999                 12.3383
    26   7      2.0072999999999999      2.9964300000000001                 14.6273
    27   4                 3.27433      4.0072200000000002                 15.7471
    28   4      2.6968299999999998      2.4407100000000002                 16.5791
    29   4      4.1374599999999999      1.0938000000000001      15.136900000000001
    30   4      5.1067600000000004      2.7564799999999998                  15.074
    31   2                 11.0998    -0.77865700000000004     -1.5547899999999999
    32   2      9.8130900000000008    0.056031200000000003     -1.7851399999999999
    33   7      10.250500000000001                 1.44496     -1.3981399999999999
    34   2                 11.6189      1.4563200000000001                -1.16378
    35   7      12.279500000000001      2.4421499999999998    -0.80832899999999996
    36   7      12.154999999999999     0.17183899999999999     -1.2660800000000001
    37   4                 11.4549                -1.42527     -2.3479999999999999
    38   4      10.845700000000001                -1.44831    -0.70323999999999998
    39   4      9.0327400000000004               -0.325409     -1.1258999999999999
    40   4      9.4614999999999991              -0.0112327     -2.8199399999999999
    41   2      7.8054600000000001      6.1036299999999999                 14.6854
    42   2      7.4597800000000003      7.5815900000000003      14.782500000000001
    43   7      6.0793200000000001      7.5213000000000001                 15.3089
    44   2      5.6935700000000002      6.2985100000000003                 15.5869
    45   7      4.5985199999999997      6.0257899999999998      16.065899999999999
    46   7      6.6722200000000003      5.3768700000000003                 15.2425
    47   4      8.7214899999999993                 5.84206                 15.1485
    48   4      7.9164599999999998      5.8047800000000001                 13.6065
    49   4      7.4461599999999999      8.1461000000000006                 13.8651
    50   4      8.0506799999999998      8.0336599999999994                 15.5718
    51   2                 11.4709      2.9525100000000002      8.9849899999999998
    52   2                 11.8454      3.3959899999999998                 7.54725
    53   7                 10.6058      3.0118399999999999      6.7108100000000004
    54   2      9.9202600000000007                 2.14594                 7.51145
    55   7      8.9897100000000005      1.4639200000000001      7.1181400000000004
    56   7                 10.4574      1.9003699999999999      8.7202099999999998
    57   4      10.954700000000001      3.8199900000000002      9.4794900000000002
    58   4      12.271699999999999                 2.52149      9.5891699999999993
    59   4      12.648099999999999      2.9895800000000001      7.0521099999999999
    60   4                 11.8787      4.4842199999999997      7.4939499999999999
    61   2     -12.811299999999999     -8.4842399999999998                 10.5534
    62   2                -13.1983     -8.5129400000000004      9.0837000000000003
    63   7                -11.8256     -8.6676699999999993      8.4087200000000006
    64   2                 -10.885     -8.8866300000000003      9.3043499999999995
    65   7     -9.7105999999999995     -9.1543799999999997      9.0106800000000007
    66   7                -11.3635                -8.82958      10.560700000000001
    67   4     -13.296900000000001     -9.1982900000000001                 11.1873
    68   4                -12.7957     -7.4657299999999998                 11.0396
    69   4     -13.655900000000001                -7.52738                 8.68872
    70   4     -13.656000000000001     -9.4420400000000004      8.8934899999999999
    71   2      11.601800000000001      25.844000000000001     -7.2765599999999999
    72   2      12.223699999999999      24.673300000000001     -6.5787800000000001
    73   7                 12.3996      23.700800000000001     -7.7003399999999997
    74   2                 12.4397                 24.4253     -8.8860399999999995
    75   7      12.719200000000001                 24.0337     -9.9858200000000004
    76   7                 12.0967      25.706399999999999     -8.6279400000000006
    77   4      11.831799999999999      26.819500000000001     -6.8427800000000003
    78   4                 10.4847      25.841999999999999     -7.3162500000000001
    79   4      11.561400000000001      24.203600000000002     -5.8186900000000001
    80   4      13.173999999999999      24.923200000000001     -6.0918299999999999
    81   2      7.1917900000000001                 12.5998      6.1758899999999999
    82   2                 6.47818      13.907999999999999      6.0186400000000004
    83   7      5.4510800000000001                 13.8672      7.0930999999999997
    84   2      5.5570300000000001      12.757300000000001      7.8501700000000003
    85   7      5.0100899999999999                 12.6272      8.9183400000000006
    86   7      6.4503199999999996      11.907500000000001      7.3152600000000003
    87   4      8.2562700000000007                 12.6052      6.3441400000000003
    88   4                  6.9878                 11.9156      5.3271499999999996
    89   4      5.9623799999999996                 13.9262      5.0639399999999997
    90   4      7.0589199999999996                 14.8916      6.1093700000000002
    91   2    -0.26919700000000002      11.876200000000001      4.3776599999999997
    92   2    -0.51221799999999995      13.239800000000001      3.6846000000000001
    93   7     -1.2430099999999999      12.909700000000001      2.4755500000000001
    94   2     -1.2648299999999999                 11.5869      2.3328000000000002
    95   7                -1.93472      11.047000000000001                 1.46312
    96   7    -0.54275600000000002                 10.8695      3.2780800000000001
    97   4    -0.98916599999999999                 11.7041      5.2130799999999997
    98   4     0.75262399999999996      11.733700000000001      4.6865500000000004
    99   4     0.39391100000000001                 13.7355      3.3772500000000001
   100   4     -1.1226799999999999                 13.9001      4.2797999999999998
   101   2                 1.88524                 7.37324      6.6339899999999998
   102   2     0.63652699999999995      6.7389700000000001      5.9796100000000001
   103   7    -0.44559700000000002      6.9948100000000002      6.9581600000000003
   104   2    0.017888999999999999                 8.16709                 7.63598
   105   7    -0.64675199999999999      8.8898899999999994      8.3470700000000004
   106   7      1.2898499999999999      8.4645600000000005                 7.46652
   107   4      2.5913200000000001      7.8036599999999998      5.9090800000000003
   108   4      2.3455300000000001      6.7720900000000004      7.3643200000000002
   109   4     0.80602099999999999      5.7146999999999997      5.9637900000000004
   110   4     0.39563999999999999                 7.13347      4.9444699999999999
   111   2     -7.1352799999999998                -1.99546     -2.6645500000000002
   112   2     -5.7061500000000001     -1.9180600000000001     -2.2200099999999998
   113   7     -5.1947900000000002     -3.2620900000000002     -2.3341599999999998
   114   2     -6.2398199999999999     -4.0962199999999998     -2.6498699999999999
   115   7     -5.9372499999999997     -5.2716599999999998                -2.96902
   116   7     -7.4373800000000001                 -3.4394     -2.6196100000000002
   117   4     -7.3544299999999998                -1.60944     -3.6880199999999999
   118   4     -7.7914500000000002     -1.4297599999999999     -1.9325000000000001
   119   4     -5.5281099999999999                -1.56724     -1.1635899999999999
   120   4     -4.9663300000000001     -1.3725000000000001     -2.8395100000000002
   121   2                 22.2577      15.932499999999999      5.2696699999999996
   122   2      23.627500000000001      15.579700000000001      4.7897999999999996
   123   7      24.418800000000001      16.704599999999999      5.2494199999999998
   124   2      23.583500000000001      17.814499999999999      5.2301000000000002
   125   7      24.104299999999999      18.875900000000001      5.4184799999999997
   126   7      22.225999999999999                 17.4084      5.2843999999999998
   127   4      22.191400000000002                 15.6584      6.3068099999999996
   128   4      21.386399999999998      15.589600000000001      4.6391400000000003
   129   4      23.819099999999999      15.492800000000001      3.6981199999999999
   130   4      23.920999999999999      14.653700000000001      5.2308199999999996
   131   2                 12.1943      20.922499999999999                 15.4588
   132   2      11.718500000000001      19.757100000000001                 16.4541
   133   7      11.961600000000001                 18.6068      15.686199999999999
   134   2                 12.5724                 18.9086                 14.5176
   135   7                 12.8559      18.063500000000001                 13.6839
   136   7      12.833500000000001      20.217300000000002                    14.4
   137   4                 12.8672                 21.6037                 15.9893
   138   4      11.319800000000001      21.483799999999999                 15.0764
   139   4      10.672000000000001      19.752500000000001                 16.6677
   140   4      12.335000000000001      19.615100000000002      17.354399999999998
   141   2                 23.7715      24.947500000000002      4.8396600000000003
   142   2      23.193899999999999                  24.619      6.1558200000000003
   143   7      21.758800000000001      25.112400000000001      6.1144400000000001
   144   2      21.466999999999999                 25.1812                  4.8064
   145   7      20.343699999999998      25.237200000000001      4.3194499999999998
   146   7      22.534400000000002                 25.1418      4.0042200000000001
   147   4      24.327500000000001      24.141999999999999      4.3193000000000001
   148   4      24.279699999999998      25.960100000000001      4.8814399999999996
   149   4      23.747900000000001      25.090299999999999      6.9485400000000004
   150   4      22.990400000000001                 23.5794      6.4292999999999996
   151   2     -5.9105600000000003      16.388500000000001     -7.0185199999999996
   152   2     -4.7510300000000001                 16.3735                -7.97438
   153   7                -3.83778      17.415199999999999     -7.4222099999999998
   154   2     -4.5007299999999999      18.078299999999999     -6.4792699999999996
   155   7                -4.01342      18.771599999999999     -5.6370199999999997
   156   7     -5.8584500000000004      17.799700000000001                -6.60541
   157   4     -5.7300300000000002      15.907299999999999                -6.03416
   158   4     -6.8786199999999997      16.108599999999999     -7.5309499999999998
   159   4     -5.0769700000000002      16.726500000000001     -8.9772400000000001
   160   4     -4.2396399999999996      15.494300000000001     -8.1002200000000002
   161   2     -1.2675099999999999      12.632899999999999                 14.4299
   162   2                0.282223      12.683199999999999      14.470599999999999
   163   7                0.561473                 11.3491                 14.0037
   164   2    -0.43262400000000001      10.959300000000001      13.160399999999999
   165   7               -0.373672      9.9302499999999991                 12.5562
   166   7     -1.5402199999999999                 11.8787                 13.2256
   167   4                -1.90204      13.523400000000001                 14.3345
   168   4     -1.4725600000000001      11.964399999999999                 15.2624
   169   4     0.70681400000000005                 12.7006      15.489800000000001
   170   4     0.70925800000000006                 13.4376                 13.7874
   171   2      20.664899999999999      25.185500000000001      21.787400000000002
   172   2      21.493400000000001      23.885200000000001      21.711300000000001
   173   7                  20.808                 22.9496      22.707799999999999
   174   2                 19.7546      23.604199999999999      23.220199999999998
   175   7      19.047499999999999      23.027999999999999                 24.0444
   176   7      19.609000000000002      24.874300000000002      22.758500000000002
   177   4      20.285900000000002      25.528500000000001      20.825500000000002
   178   4      21.163499999999999                 26.0412      22.272300000000001
   179   4      22.536300000000001      24.017199999999999                  21.956
   180   4                 21.3826      23.355499999999999      20.714200000000002
   181   2      15.794499999999999      10.979699999999999      14.664999999999999
   182   2      17.206499999999998                 11.5405                 14.6327
   183   7                  16.994      12.841200000000001      14.053699999999999
   184   2      15.696199999999999      13.000999999999999      13.643599999999999
   185   7                 15.3043      13.874499999999999      12.918100000000001
   186   7      14.931900000000001      12.000400000000001                 14.1523
   187   4                 15.4588      10.733000000000001      15.760899999999999
   188   4                 15.7523                 10.0726                  13.919
   189   4                   17.93                 10.9986      14.011900000000001
   190   4      17.664000000000001                 11.7263                 15.6273
   191   2                 15.9704                 23.7715                 19.7941
   192   2                  15.715                 24.9314      18.763400000000001
   193   7      15.005800000000001                 24.2058      17.715399999999999
   194   2      14.406000000000001      23.117999999999999      18.241499999999998
   195   7                 13.4869                 22.4803                 17.7971
   196   7                 14.9786      22.760300000000001      19.484100000000002
   197   4                 15.8238                 24.0562      20.789100000000001
   198   4      17.010100000000001      23.366800000000001      19.706499999999998
   199   4      16.644400000000001                 25.2682      18.407699999999998
   200   4      15.039199999999999                 25.7178                 19.0916
   201   2      15.889200000000001                 14.7845                 22.4544
   202   2      17.105899999999998      15.790800000000001      22.696999999999999
   203   7      18.128599999999999      15.212999999999999      21.768000000000001
   204   2                 17.7422      13.920199999999999      21.362100000000002
   205   7      18.523599999999998                  13.391      20.616299999999999
   206   7      16.481200000000001                 13.6456                 21.7605
   207   4                 15.2097                 15.1739      21.707699999999999
   208   4      15.335599999999999      14.495100000000001      23.351800000000001
   209   4      17.525099999999998                 15.7126      23.700199999999999
   210   4                 16.8947      16.806000000000001                 22.3521
   211   2                 18.8337      16.119700000000002      18.896000000000001
   212   2      20.161100000000001      16.220800000000001      18.161899999999999
   213   7      20.402200000000001      14.782500000000001      17.825399999999998
   214   2      19.173999999999999                 14.1699                 17.6721
   215   7      18.938700000000001                 13.1457      17.095700000000001
   216   7      18.170300000000001      14.937099999999999      18.258600000000001
   217   4      18.177800000000001      16.954999999999998                 18.6007
   218   4                 18.7898      16.017299999999999      19.947900000000001
   219   4      20.991900000000001      16.765899999999998      18.583400000000001
   220   4                 19.8218                 16.6511      17.112400000000001
   221   2     -4.6693199999999999      18.050999999999998                 5.55776
   222   2     -3.2501500000000001      17.533999999999999      5.4554299999999998
   223   7     -2.4729899999999998      18.714400000000001      5.2187599999999996
   224   2                -3.29358      19.820499999999999      5.2853899999999996
   225   7     -2.8565100000000001      20.941400000000002                 5.24146
   226   7     -4.5819000000000001      19.492000000000001      5.4948899999999998
   227   4     -5.0342900000000004      17.694800000000001      6.4789300000000001
   228   4     -5.2429199999999998      17.800599999999999      4.6372200000000001
   229   4     -3.0217999999999998                 16.8627      4.6484100000000002
   230   4     -2.9537399999999998      17.020099999999999      6.4014600000000002
   231   2      11.725300000000001      17.591100000000001                 21.5352
   232   2                 10.7812                 17.3218      22.703700000000001
   233   7      11.147600000000001      16.022400000000001                 23.1218
   234   2      11.896800000000001                 15.3596      22.142199999999999
   235   7                 12.1249      14.155099999999999                 22.1571
   236   7                 12.2529                 16.2257      21.223500000000001
   237   4                 12.5824                 18.3033      21.808399999999999
   238   4      11.204700000000001      17.891999999999999      20.664899999999999
   239   4      9.7655499999999993      17.384699999999999      22.415500000000002
   240   4      11.112299999999999      17.991299999999999      23.492599999999999
   241   2      6.4600600000000004      22.546199999999999      19.979900000000001
   242   2      6.3384200000000002      23.165299999999998      18.554200000000002
   243   7      5.0189399999999997                 23.8154      18.557200000000002
   244   2                 4.34917      23.488700000000001      19.697399999999998
   245   7      3.1806000000000001      23.775500000000001      19.896000000000001
   246   7      5.1160300000000003                 22.7742      20.555299999999999
   247   4      7.1459400000000004                 23.0624                 20.6448
   248   4                 6.73597      21.474599999999999                 20.0396
   249   4      6.3460000000000001      22.395299999999999      17.779299999999999
   250   4                 7.06799      23.905000000000001      18.357399999999998
   251   2      19.368300000000001      19.905899999999999                  1.4796
   252   2      19.576699999999999      18.461400000000001      2.0068999999999999
   253   7      19.937200000000001                 17.7301     0.75700400000000001
   254   2      20.254100000000001                 18.5443    -0.20181299999999999
   255   7      20.667100000000001      18.268599999999999                -1.33382
   256   7                 20.0915      19.816800000000001     0.22557199999999999
   257   4                 19.7392      20.763100000000001      2.0833300000000001
   258   4      18.254999999999999      20.008600000000001                 1.21099
   259   4                 18.7011                 17.9876      2.3383400000000001
   260   4      20.423100000000002      18.330500000000001      2.6748699999999999
   261   2      2.9096899999999999      13.373100000000001     -2.7573500000000002
   262   2      1.3460300000000001                 13.2715     -2.8864399999999999
   263   7      1.0602799999999999                  12.028     -2.2400799999999998
   264   2      2.1020400000000001                 11.6244                -1.44964
   265   7      1.9610799999999999                 10.6837    -0.66636799999999996
   266   7      3.2265799999999998                 12.3683                -1.66387
   267   4      3.4139200000000001                  14.262     -2.3745699999999998
   268   4      3.3612600000000001                 12.9655     -3.7015400000000001
   269   4                 1.03528                 13.2433     -3.9308200000000002
   270   4     0.88097899999999996                 14.2019     -2.3934500000000001
   271   2      5.0898300000000001      8.8946699999999996      8.7659599999999998
   272   2      6.1042199999999998      8.9160199999999996      9.9451099999999997
   273   7      6.2857900000000004      7.5214499999999997      10.324299999999999
   274   2      5.7015399999999996      6.7462999999999997      9.3534500000000005
   275   7      5.6509799999999997                 5.54549      9.4092599999999997
   276   7      5.2144599999999999      7.5255299999999998      8.3404399999999992
   277   4      5.3456700000000001      9.5446899999999992      7.9227699999999999
   278   4      4.0079799999999999      8.8644200000000009      9.0509299999999993
   279   4      5.7656299999999998      9.5822800000000008                 10.7193
   280   4      7.0781900000000002      9.3709600000000002      9.5767000000000007
   281   2      7.6862000000000004      3.9740099999999998      11.162699999999999
   282   2      6.4127000000000001      3.5122100000000001                 11.7744
   283   7      5.8855399999999998      2.6321400000000001                 10.7402
   284   2      6.7818899999999998                 2.37663      9.7706700000000009
   285   7                 6.59734      1.6089500000000001                 8.87378
   286   7      7.8973500000000003      3.0275400000000001                 10.0067
   287   4      8.5668799999999994      3.8089300000000001                 11.7287
   288   4      7.8786699999999996      4.9253799999999996      10.681800000000001
   289   4      5.6183100000000001      4.2176499999999999      11.988099999999999
   290   4      6.6627900000000002      2.9789400000000001      12.666499999999999
   291   2                 15.6326      3.8169499999999998                 10.8765
   292   2                 15.4602      3.9800800000000001      9.3649799999999992
   293   7      14.851900000000001      5.2491599999999998      9.1945800000000002
   294   2      14.232200000000001      5.5413500000000004                 10.3506
   295   7                 13.4688      6.4760900000000001      10.298999999999999
   296   7      14.601699999999999      4.7707100000000002                 11.3895
   297   4                 16.6312      4.2543800000000003                 11.1294
   298   4                 15.5312      2.8315199999999998                 11.3157
   299   4      14.778700000000001      3.1812200000000002      8.9816299999999991
   300   4                 16.3627      3.9395500000000001      8.7788000000000004
   301   2                 19.6097      8.2869299999999999                 3.87114
   302   2                  19.145      9.2302700000000009      5.0059699999999996
   303   7      18.521599999999999      8.3026599999999995                 6.01722
   304   2      18.602799999999998      6.9696400000000001      5.5450999999999997
   305   7                 18.2166      6.0235799999999999      6.1791499999999999
   306   7      19.171800000000001      6.9650100000000004      4.3122800000000003
   307   4      20.698399999999999      8.3213600000000003      3.5708600000000001
   308   4                 19.0747      8.2977399999999992      2.9532099999999999
   309   4      18.353999999999999      9.9783000000000008      4.7593800000000002
   310   4      20.001899999999999      9.7560400000000005      5.4454399999999996
   311   2    -0.30338300000000001      18.368200000000002      14.139799999999999
   312   2     0.68629499999999999      18.845800000000001      13.069699999999999
   313   7      2.0064600000000001      18.494499999999999                 13.6236
   314   2      1.7847599999999999      17.424499999999998                 14.5166
   315   7      2.7195299999999998                 16.7136                 14.8889
   316   7     0.47678700000000002      17.262699999999999      14.817299999999999
   317   4     -1.2759400000000001      17.932700000000001                 13.7241
   318   4    -0.53145399999999998      19.121600000000001                 14.9224
   319   4     0.66084399999999999      19.960100000000001                 12.9255
   320   4     0.53934499999999996      18.380500000000001                 12.0854
   321   2                 13.4284     -7.1084399999999999      18.593900000000001
   322   2                 13.2707     -7.2654399999999999                 16.9712
   323   7      14.416499999999999     -8.1386599999999998      16.674199999999999
   324   2                 14.9518     -8.6085799999999999      17.848800000000001
   325   7                 15.7743     -9.5359499999999997      17.910699999999999
   326   7                 14.4115     -8.0095700000000001                 18.9361
   327   4                 12.4885     -7.4033499999999997                 19.1281
   328   4                 13.7827     -6.1158099999999997      18.895299999999999
   329   4      13.444699999999999     -6.3451899999999997      16.353400000000001
   330   4                   12.33     -7.6879600000000003      16.659800000000001
   331   2      15.974600000000001      21.522400000000001                 15.5131
   332   2                 15.3879                 22.2623      14.303900000000001
   333   7                 15.9358                 23.6327      14.465199999999999
   334   2      16.947399999999998      23.583200000000001      15.349299999999999
   335   7                 17.5336      24.565000000000001      15.731199999999999
   336   7      17.127500000000001      22.380500000000001                 15.9018
   337   4      16.440999999999999                 20.5501                 15.2554
   338   4                 15.3522      21.409700000000001      16.421099999999999
   339   4                 14.3385      22.294699999999999                 14.2362
   340   4      15.821099999999999      21.792400000000001      13.368399999999999
   341   2      20.111999999999998    -0.66988300000000001      18.550899999999999
   342   2      20.353899999999999   -0.051545899999999999                 17.2011
   343   7      20.566099999999999      1.2992699999999999      17.511800000000001
   344   2      19.749500000000001                 1.61812                  18.503
   345   7      19.344899999999999      2.7549800000000002                 18.6676
   346   7      19.459900000000001     0.51741000000000004      19.295000000000002
   347   4      21.062000000000001    -0.80617399999999995      19.046299999999999
   348   4      19.488900000000001                -1.52877                 18.5943
   349   4      19.482199999999999    -0.15567600000000001      16.439399999999999
   350   4      21.247299999999999    -0.58433100000000004      16.749099999999999
   351   2      6.1237399999999997      8.9302799999999998      3.6409799999999999
   352   2      7.4427300000000001      8.0807800000000007                 3.33168
   353   7      8.0710999999999995      8.1811000000000007      4.6546500000000002
   354   2      7.4716699999999996      9.0423299999999998      5.4866999999999999
   355   7      7.7974199999999998      9.2694899999999993      6.6172399999999998
   356   7      6.3954399999999998      9.5017300000000002      4.9142000000000001
   357   4      5.3101200000000004      8.2500599999999995                  3.7662
   358   4      5.9784899999999999      9.7623200000000008      3.0065499999999998
   359   4      8.1554699999999993      8.5501100000000001      2.6211099999999998