(written by ASE)

888 atoms
9 atom types

0.0      21.553999999999998  xlo xhi
0.0      21.553999999999998  ylo yhi
0.0                  21.544  zlo zhi

Atoms # atomic

     1   2     -33.540300000000002     -12.993399999999999      20.065999999999999
     2   4     -34.499000000000002                -12.6708      20.401800000000001
     3   4     -33.230200000000004     -13.819800000000001                 20.7926
     4   7     -32.689599999999999     -11.733000000000001      20.267800000000001
     5   2     -32.438200000000002     -11.149699999999999                 19.0288
     6   7     -31.828600000000002                -10.1557      18.828399999999998
     7   7     -33.093200000000003     -11.950900000000001      18.074400000000001
     8   2     -33.334699999999998     -13.232200000000001                 18.6081
     9   4     -32.515099999999997     -13.870100000000001                 18.3643
    10   4     -34.218699999999998     -13.628299999999999      18.110900000000001
    11   2                -25.4801     -6.9857199999999997      5.1206399999999999
    12   4                 -24.523     -7.5789900000000001      5.2419599999999997
    13   4     -25.429099999999998      15.470599999999999      5.8256199999999998
    14   7     -26.494399999999999     -7.8325699999999996                 5.74655
    15   2                -27.5106     -7.9575699999999996      4.8529499999999999
    16   7     -28.554099999999998     -8.4848999999999997      5.1306000000000003
    17   7     -27.240300000000001     -7.2994399999999997      3.6583399999999999
    18   2     -25.922599999999999                -6.77121      3.6623600000000001
    19   4     -25.912199999999999                -5.68668      3.3572799999999998
    20   4     -25.438400000000001     -7.3848000000000003      2.8514499999999998
    21   2     -27.070699999999999                -3.36354                 1.94852
    22   4                -26.9773     -3.9714999999999998      1.0513999999999999
    23   4     -26.580100000000002     -3.9200200000000001      2.7492000000000001
    24   7                -28.4739     -3.0459399999999999      2.3214100000000002
    25   2                -28.4876     -1.8002899999999999                 2.89974
    26   7     -29.506499999999999                -1.35155      3.4368799999999999
    27   7     -27.262899999999998     -1.2044999999999999      2.8574899999999999
    28   2     -26.384899999999998                -1.97105      1.9663999999999999
    29   4     -25.428899999999999     -2.0046200000000001      2.5371999999999999
    30   4     -26.344000000000001                 -1.5279     0.95862999999999998
    31   2                -13.4674      4.3942699999999997     -2.2633100000000002
    32   4                -12.6081      5.0620000000000003     -2.0498099999999999
    33   4                -13.2294                 3.50162                 -1.7785
    34   7                -13.4626      4.1001399999999997     -3.6695799999999998
    35   2     -14.724500000000001      4.1237399999999997     -4.1252300000000002
    36   7                -15.0501      3.8636200000000001     -5.2572099999999997
    37   7     -15.582800000000001      4.7337499999999997     -3.2140499999999999
    38   2                -14.8032      5.0708399999999996     -2.0487099999999998
    39   4                -15.3568      4.5917000000000003                -1.25657
    40   4     -14.704000000000001      6.2246600000000001     -1.9501900000000001
    41   2                -20.8552     -7.2173400000000001      17.370999999999999
    42   4     -20.020199999999999     -6.5211600000000001      17.187000000000001
    43   4     -20.825099999999999     -8.0651600000000006      16.692499999999999
    44   7                -22.0215     -6.4626700000000001      17.163499999999999
    45   2     -22.864999999999998     -6.7077799999999996      18.171500000000002
    46   7     -24.056799999999999     -6.3936099999999998                 18.0959
    47   7                -22.2424     -7.2896799999999997      19.253499999999999
    48   2                 -20.869                -7.58535      18.837499999999999
    49   4     -20.704699999999999     -8.7310700000000008      18.922699999999999
    50   4     -20.296700000000001     -6.9701300000000002                 19.4039
    51   2     -16.258600000000001                  11.872                 13.6571
    52   4     -16.078099999999999                 12.1944      14.666700000000001
    53   4     -16.531500000000001                 12.8231      13.085699999999999
    54   7     -17.379000000000001     -10.752000000000001                 13.6272
    55   2                -17.1264                -11.5657                 12.5349
    56   7     -17.873699999999999                 -12.446                 12.1729
    57   7                 -16.061      10.373100000000001      11.889699999999999
    58   2                -15.2226                 11.2005      12.789199999999999
    59   4                -14.5954                 11.9617      12.239599999999999
    60   4                  -14.59      10.559799999999999      13.323700000000001
    61   2                -20.3536     -3.3962599999999998      17.789000000000001
    62   4     -21.168600000000001     -2.6951200000000002      18.012699999999999
    63   4     -20.581700000000001                 -3.9594      16.843299999999999
    64   7                -20.2287     -4.4076199999999996                 18.7654
    65   2     -19.166599999999999     -4.2159700000000004                 19.5291
    66   7     -18.906099999999999     -4.8220499999999999      20.578499999999998
    67   7     -18.485600000000002     -3.1358799999999998      19.098199999999999
    68   2                -19.0505     -2.6991800000000001      17.765699999999999
    69   4     -18.383299999999998     -3.1455899999999999      17.064399999999999
    70   4     -19.178899999999999     -1.6186700000000001      17.918299999999999
    71   2                 -28.776      6.2363400000000002     -2.7165900000000001
    72   4                -27.7836      5.7894899999999998     -2.8437100000000002
    73   4                -29.4803                 5.96326     -3.4631099999999999
    74   7                -28.4392      7.7228899999999996     -3.0609199999999999
    75   2                -29.0733                -13.0564     -2.2445200000000001
    76   7     -29.083100000000002                -11.8292                -2.37859
    77   7                -29.6707      7.8258700000000001     -1.1960900000000001
    78   2     -29.378900000000002                 6.42631     -1.3723700000000001
    79   4     -30.204899999999999      5.7652400000000004     -1.0784499999999999
    80   4                 -28.686      6.1821200000000003    -0.56700899999999999
    81   2     -30.694199999999999                -12.6174      9.8331999999999997
    82   4     -31.787500000000001                -12.5258      9.8315400000000004
    83   4     -30.325199999999999                -13.3146      10.591200000000001
    84   7     -30.207100000000001                -11.3383                  10.192
    85   2     -29.644100000000002     -10.802300000000001      9.0758600000000005
    86   7     -29.188199999999998     -9.5981100000000001      9.2028599999999994
    87   7     -29.530799999999999                -11.6656                 7.99383
    88   2     -30.121200000000002                -12.9381                 8.38035
    89   4                -29.3292                -13.7258      8.5034100000000006
    90   4     -31.027000000000001                 -13.192      7.7235800000000001
    91   2     -17.088899999999999     -9.0800800000000006      22.324999999999999
    92   4     -16.438600000000001     -9.5174599999999998      21.549099999999999
    93   4     -17.308599999999998     -9.8606400000000001                 23.1007
    94   7                -18.3718     -8.7921899999999997      21.661799999999999
    95   2                 -18.901                -7.73447      22.369199999999999
    96   7                -20.0761     -7.4318499999999998                  22.253
    97   7     -17.996600000000001     -7.0911099999999996      23.151599999999998
    98   2     -16.697600000000001     -7.6677999999999997      22.871500000000001
    99   4                -15.9666     -7.7414500000000004                 23.7226
   100   4                 -16.209     -7.1955600000000004      22.018599999999999
   101   2     -19.735800000000001     -4.8759899999999998      6.4685800000000002
   102   4     -18.857800000000001     -5.2660799999999997      5.9272499999999999
   103   4     -20.660799999999998     -5.0600500000000004      5.9127900000000002
   104   7     -19.572800000000001     -3.5455899999999998      6.5246199999999996
   105   2     -20.018599999999999     -2.9969199999999998      7.6631400000000003
   106   7     -20.204799999999999                -1.78827      7.8363300000000002
   107   7     -20.247599999999998     -3.8926400000000001      8.5980500000000006
   108   2     -20.036000000000001     -5.2440499999999997      8.0042899999999992
   109   4     -20.886600000000001     -5.8017700000000003      8.2091999999999992
   110   4     -19.145199999999999                -5.51518      8.6258999999999997
   111   2     -24.709700000000002      5.8088800000000003     -3.2745500000000001
   112   4     -25.064399999999999                 6.76145      18.045200000000001
   113   4                -25.2636      5.3888999999999996     -2.3982000000000001
   114   7                -23.3171      5.9400199999999996     -2.8768500000000001
   115   2     -22.545300000000001      5.1836000000000002     -3.6515200000000001
   116   7                 -21.331      5.0682999999999998     -3.5154200000000002
   117   7     -23.261099999999999      4.4079699999999997     -4.5443300000000004
   118   2     -24.583500000000001      4.9686700000000004                -4.61388
   119   4     -25.363499999999998                 4.26525     -4.5741500000000004
   120   4     -24.552199999999999      5.6139799999999997      15.965299999999999
   121   2     -38.245600000000003                -13.0419      22.610499999999998
   122   4     -39.135800000000003     -13.647500000000001                 22.4161
   123   4     -38.096299999999999                -12.6692                 23.6035
   124   7                -38.2712     -11.927300000000001      21.627199999999998
   125   2     -37.489800000000002                -12.2257      20.562100000000001
   126   7     -37.345999999999997                -11.5688      19.597200000000001
   127   7     -36.840899999999998                 -13.384      20.743500000000001
   128   2     -36.956600000000002                -13.8001                 22.1144
   129   4     -36.021099999999997     -13.386900000000001      22.626799999999999
   130   4     -37.105800000000002     -14.879200000000001                 22.1356
   131   2                 -15.936     -7.7169600000000003                 18.0108
   132   4     -15.524100000000001     -7.0014900000000004                 17.2807
   133   4     -15.067500000000001     -8.0740599999999993      18.619900000000001
   134   7     -16.461600000000001     -8.8740699999999997      17.299900000000001
   135   2     -17.779199999999999     -9.0015099999999997      17.617699999999999
   136   7                -18.5182     -9.8260100000000001                  17.122
   137   7     -18.174800000000001                 -8.1044                 18.5228
   138   2                -16.9984     -7.2709400000000004      18.942799999999998
   139   4     -16.793700000000001                -7.64412      19.959800000000001
   140   4     -17.177900000000001                -6.16629      18.989000000000001
   141   2     -9.1943000000000001                -3.35616      6.0118600000000004
   142   4     -8.7728999999999999     -2.3616100000000002      5.5399200000000004
   143   4     -31.841799999999999     -3.2386400000000002      6.1732500000000003
   144   7     -30.082100000000001     -3.4724200000000001                 7.26877
   145   2     -29.238099999999999     -4.5040699999999996                 7.20031
   146   7     -28.441800000000001                -4.77942      8.0474599999999992
   147   7     -7.6436099999999998     -4.9966699999999999      5.9813200000000002
   148   2     -8.8001699999999996     -4.5879399999999997      5.2095399999999996
   149   4     -9.4551400000000001     -5.4632699999999996      5.2132100000000001
   150   4     -8.4640400000000007     -4.2673300000000003      4.2043299999999997
   151   2     -25.572900000000001                -12.4284      16.305499999999999
   152   4     -24.782699999999998                -11.8437                 15.7926
   153   4     -25.346900000000002     -12.547800000000001                 17.4087
   154   7                -25.5076                -13.7341                 15.7445
   155   2                 -26.753                -14.1456      15.285600000000001
   156   7     -27.074999999999999     -15.260400000000001                  14.926
   157   7     -27.588100000000001                 -13.051                  15.185
   158   2     -27.019500000000001                -11.9596      16.086400000000001
   159   4                -27.5943      9.6173599999999997                 17.0215
   160   4     -27.113600000000002      10.539199999999999      15.553699999999999
   161   2     -36.612000000000002     -1.5400799999999999      18.219899999999999
   162   4                -35.7348     -2.1541800000000002                 18.4923
   163   4                -37.2819                -1.98309      17.441099999999999
   164   7     -36.240900000000003    -0.19545100000000001                 17.8749
   165   2     -36.505400000000002     0.56973799999999997      18.964300000000001
   166   7                -14.8552      1.8099400000000001      18.988099999999999
   167   7     -36.935499999999998   -0.087208499999999994                 20.0777
   168   2     -37.396500000000003     -1.4119600000000001      19.572900000000001
   169   4     -38.472999999999999     -1.4087799999999999                 19.5303
   170   4     -37.040999999999997     -2.2024300000000001                 20.2104
   171   2                -11.6838                -4.43764      14.956099999999999
   172   4                -10.9542     -5.1329900000000004      15.495900000000001
   173   4     -11.711399999999999     -4.7028499999999998                 13.8901
   174   7                -11.4947     -3.0340600000000002      15.245100000000001
   175   2     -12.183999999999999     -2.6875499999999999      16.399799999999999
   176   7     -11.957700000000001     -1.7349600000000001      17.093800000000002
   177   7                -13.1021     -3.6674099999999998      16.708400000000001
   178   2     -13.101699999999999                -4.62852                 15.5373
   179   4                -13.8683     -4.2435499999999999                 14.8139
   180   4                -13.2715     -5.6005599999999998                 15.9717
   181   2     -22.884799999999998     -12.600300000000001      4.6746699999999999
   182   4     -23.111899999999999      9.9886199999999992      4.3250500000000001
   183   4     -23.722300000000001     -13.196400000000001      4.9513600000000002
   184   7     -22.001100000000001      9.1893200000000004      5.9295999999999998
   185   2     -20.957599999999999     -13.225300000000001      5.7869299999999999
   186   7     -20.066099999999999     -13.283799999999999      6.6177799999999998
   187   7     -20.869399999999999     -13.829599999999999      4.5710800000000003
   188   2     -21.967600000000001     -13.274100000000001                 3.70573
   189   4     -22.413399999999999     -14.116099999999999      3.2379600000000002
   190   4                -21.5535     -12.562099999999999      24.483599999999999
   191   2     -23.628399999999999     -1.4068099999999999      17.952200000000001
   192   4     -22.621500000000001    -0.93150900000000003      18.029299999999999
   193   4                 -23.811                -1.30219      16.904900000000001
   194   7                -24.6845    -0.85051600000000005      18.707699999999999
   195   2     -25.595500000000001     -1.7887299999999999                 19.1145
   196   7     -26.642900000000001     -1.5095799999999999      19.668600000000001
   197   7                -25.0945     -3.0419900000000002                 18.8216
   198   2                -23.6938     -2.9325800000000002      18.237100000000002
   199   4     -23.780999999999999                -3.56907      17.349699999999999
   200   4     -23.147500000000001                -3.50143      19.025099999999998
   201   2                 -21.785     -2.6658400000000002                 22.2913
   202   4     -21.729299999999999     -1.6779200000000001      22.798200000000001
   203   4     -20.966000000000001     -2.5840999999999998      21.524799999999999
   204   7     -23.114999999999998     -2.7863799999999999      21.592400000000001
   205   2     -23.518599999999999     -4.1575899999999999      21.689299999999999
   206   7                -24.4392     -4.6347699999999996      21.126899999999999
   207   7     -22.714200000000002     -4.8658700000000001     0.91166700000000001
   208   2     -21.703199999999999     -3.9947900000000001      1.5812900000000001
   209   4     -20.783100000000001     -4.5714699999999997                 1.50339
   210   4     -22.021799999999999     -3.8485100000000001                 2.63672
   211   2     -12.077199999999999                -6.62446      19.524899999999999
   212   4                 -12.105     -7.4378000000000002                 18.7606
   213   4     -11.401199999999999     -6.6970799999999997      20.355899999999998
   214   7                -13.4579     -6.6786700000000003      20.143699999999999
   215   2                 -14.035     -5.4658600000000002                 20.0945
   216   7     -15.151300000000001     -5.1375599999999997      20.380600000000001
   217   7     -13.122299999999999     -4.5754400000000004                -1.97587
   218   2                -11.9335     -5.1927500000000002     -2.5071699999999999
   219   4     -32.555399999999999     -4.6982999999999997     -2.3033299999999999
   220   4                -12.0924     -5.2729699999999999     -3.6057600000000001
   221   2     -20.499199999999998      10.755100000000001      14.254200000000001
   222   4     -19.869900000000001                 10.0954      13.592599999999999
   223   4     -20.540199999999999      10.276199999999999      15.247299999999999
   224   7     -21.881699999999999                 10.8794      13.704700000000001
   225   2     -22.274100000000001                 12.1975                 13.7737
   226   7     -23.474900000000002      12.508699999999999                 13.6157
   227   7     -21.208200000000001                 12.9611                 13.9871
   228   2     -19.982900000000001                 12.2034      14.258800000000001
   229   4                 -19.596                 12.6137                 15.2186
   230   4     -19.213999999999999      12.269500000000001                  13.477
   231   2     -37.027500000000003      8.4358599999999999      16.991499999999998
   232   4     -36.591799999999999      9.3046600000000002                 17.5242
   233   4     -37.192100000000003      7.5549799999999996      17.663499999999999
   234   7     -36.002699999999997      8.2087199999999996      16.050699999999999
   235   2     -36.515599999999999      7.8254900000000003      14.873900000000001
   236   7     -14.338100000000001      7.3247400000000003      13.924300000000001
   237   7     -37.879600000000003      7.9129800000000001      14.907999999999999
   238   2                 -38.244      8.6168499999999995      16.131699999999999
   239   4     -39.168399999999998      8.1058000000000003      16.484400000000001
   240   4                 -38.442      9.6243599999999994                 15.8529
   241   2     -33.026200000000003                -8.02407      5.1349099999999996
   242   4     -33.102600000000002     -6.9923799999999998      5.5585599999999999
   243   4     -33.653300000000002     -8.1138899999999996      4.2629700000000001
   244   7     -33.533799999999999     -8.9417600000000004      6.1014900000000001
   245   2     -32.572899999999997     -9.8249600000000008      6.4649099999999997
   246   7     -32.744199999999999                -10.8459                 7.17652
   247   7     -31.363199999999999     -9.5047300000000003                  5.9653
   248   2                -31.5397     -8.4884599999999999      4.9439399999999996
   249   4                -31.3308     -8.9337599999999995      3.9872399999999999
   250   4     -30.767800000000001     -7.7251599999999998      5.2171500000000002
   251   2     -24.785900000000002     -7.5882100000000001      9.3524999999999991
   252   4                -24.2882     -6.6853600000000002      8.9760799999999996
   253   4                -24.3504                -8.51295      8.8580699999999997
   254   7     -26.173500000000001     -7.5200100000000001      9.1506000000000007
   255   2     -26.805299999999999     -7.0724400000000003                 10.2662
   256   7                -28.0212     -6.7757500000000004                 10.3324
   257   7     -25.898299999999999     -6.9988999999999999      11.307399999999999
   258   2     -24.741399999999999     -7.6924400000000004                  10.885
   259   4                -24.7987     -8.6837400000000002      11.297000000000001
   260   4     -23.972000000000001     -7.1171699999999998                 11.4116
   261   2     -25.116499999999998                 10.6431      19.912700000000001
   262   4     -26.003900000000002                 10.0052      19.954699999999999
   263   4                -25.1341      11.198499999999999      20.851900000000001
   264   7                -25.0809                 11.5945      18.781199999999998
   265   2                -23.7441      11.605399999999999                 18.3308
   266   7     -23.409400000000002      12.329800000000001      17.397200000000002
   267   7     -22.979600000000001                 10.6501      18.985499999999998
   268   2     -23.893699999999999      9.8140699999999992                 19.8414
   269   4     -23.448799999999999      9.8439200000000007                   20.84
   270   4     -23.978100000000001      8.8466900000000006                 19.3018
   271   2     -30.522200000000002     -8.1270100000000003      12.269500000000001
   272   4     -30.116399999999999     -8.2074499999999997                  11.205
   273   4                -31.6113     -8.2852999999999994      12.310700000000001
   274   7     -30.410399999999999     -6.7663599999999997      12.786899999999999
   275   2     -29.288799999999998     -6.5757000000000003      13.481999999999999
   276   7     -28.811599999999999     -5.4743700000000004      13.690899999999999
   277   7                -28.6995     -7.7932199999999998                 13.7874
   278   2     -29.577100000000002     -8.8978099999999998                 13.2043
   279   4                -30.1204     -9.2733399999999993                 14.0724
   280   4     -28.976299999999998     -9.6718100000000007                 12.6737
   281   2     -35.681100000000001                 10.8132      8.6154100000000007
   282   4     -36.750300000000003      10.816800000000001      8.9586100000000002
   283   4     -35.450000000000003                 11.7598      8.0844000000000005
   284   7     -35.670999999999999                -11.9148      7.8544499999999999
   285   2     -34.674700000000001     -12.818199999999999      8.1403400000000001
   286   7     -34.407699999999998     -13.852499999999999      7.6074999999999999
   287   7                -34.0246                -12.3888      9.2545400000000004
   288   2     -34.598599999999998                 10.4154      9.6919900000000005
   289   4     -33.805900000000001      11.151300000000001      9.6716499999999996
   290   4     -35.023299999999999                 10.2883      10.726000000000001
   291   2     -26.812899999999999      5.9113899999999999      4.6528799999999997
   292   4                -27.3887      6.1360799999999998                 5.50251
   293   4     -26.917200000000001      6.7999700000000001      3.9381300000000001
   294   7                -27.4739      4.7995400000000004      3.9582099999999998
   295   2     -26.786100000000001                  3.7174      4.2436299999999996
   296   7     -27.181899999999999      2.5383300000000002      4.0431800000000004
   297   7     -25.560600000000001      3.9668999999999999      4.7268100000000004
   298   2     -25.383900000000001      5.4096599999999997      4.7768100000000002
   299   4     -24.753599999999999                 5.85419                 3.97112
   300   4     -24.817299999999999      5.5234399999999999      5.6943000000000001
   301   2     -26.674800000000001      9.8077900000000007      5.6650700000000001
   302   4     -27.351299999999998                 10.6599                 5.47919
   303   4     -26.263500000000001      9.4984699999999993      4.7384700000000004
   304   7     -27.472999999999999      8.8665000000000003      6.3236100000000004
   305   2     -26.786899999999999      8.3674599999999995      7.4337499999999999
   306   7     -27.055599999999998      7.3834099999999996      8.0367800000000003
   307   7     -25.787700000000001      9.1640099999999993      7.7492799999999997
   308   2     -25.601800000000001                 10.1548                 6.69895
   309   4                -24.5855                 10.0893                 6.20648
   310   4     -25.624500000000001                 11.1168      7.2096999999999998
   311   2     -20.325299999999999                -10.9762      9.9328199999999995
   312   4                -19.5412                -11.4594                 10.5741
   313   4                -20.1753                -11.0747      8.8342799999999997
   314   7                -20.1981     -9.4729600000000005                 10.1717
   315   2     -21.465199999999999     -8.9950200000000002      10.332100000000001
   316   7                -21.6614     -7.8476999999999997      10.655200000000001
   317   7                -22.4391     -9.9026499999999995                 10.1686
   318   2     -21.732600000000001     -11.167400000000001                 10.3597
   319   4     -22.308599999999998                -11.9305      9.7186400000000006
   320   4                -21.6616                -11.5175                 11.4742
   321   2     -18.848700000000001                 3.88863     -5.1372999999999998
   322   4     -19.864699999999999                 3.90591     -5.4590100000000001
   323   4     -18.223700000000001      4.5988600000000002     -5.7210900000000002
   324   7     -39.881999999999998                   2.585                -5.65374
   325   2     -39.956299999999999      1.7291799999999999     -4.6122500000000004
   326   7     -39.721800000000002     0.48621199999999998                -4.72851
   327   7     -40.375100000000003      2.2865700000000002     -3.4381699999999999
   328   2     -40.217399999999998                 3.71048                -3.62338
   329   4     -39.168399999999998                 4.01119     -3.3516499999999998
   330   4     -40.935099999999998      4.2123600000000003     -3.0213100000000002
   331   2     -22.176100000000002      2.4830199999999998      14.453200000000001
   332   4                -21.5731      2.9780199999999999                 13.6714
   333   4                -22.6294                  3.2738                 15.0646
   334   7     -21.228300000000001      1.7886599999999999      15.362500000000001
   335   2     -21.287299999999998                 0.44694                 14.9222
   336   7                -20.5303    -0.41565800000000003                 15.2561
   337   7     -22.210599999999999     0.25997700000000001                 14.0067
   338   2     -23.133900000000001                 1.40029                 13.9626
   339   4     -23.822800000000001                 1.22153                 14.7904
   340   4     -23.575199999999999      1.4432700000000001      12.938599999999999
   341   2     -29.420400000000001                 1.87347      11.854900000000001
   342   4     -29.825199999999999                 2.55871                 11.0571
   343   4     -28.903199999999998      1.0327999999999999                 11.3245
   344   7     -30.615100000000002      1.2927299999999999                 12.3956
   345   2     -30.555700000000002      1.2994699999999999      13.770200000000001
   346   7     -31.422599999999999     0.90505000000000002      14.472799999999999
   347   7     -29.457599999999999                 1.96879                 14.1717
   348   2                -28.7456      2.5461900000000002                 13.0238
   349   4                -27.6356      2.2185299999999999      13.127000000000001
   350   4                -28.9146      3.5791599999999999                 13.0869
   351   2     -23.113199999999999     -8.4592799999999997     0.78837000000000002
   352   4     -23.135400000000001     -7.3386500000000003     0.73001000000000005
   353   4     -22.653300000000002     -8.9631100000000004   -0.086235800000000001
   354   7     -24.522099999999998     -8.9753500000000006     0.94126799999999999
   355   2     -24.540900000000001     -9.6032299999999999      2.1467399999999999
   356   7                -25.5063     -10.167899999999999      2.5865100000000001
   357   7     -23.397300000000001     -9.5651299999999999                  2.8632
   358   2                -22.3811     -8.9714700000000001      2.0407099999999998
   359   4     -21.591999999999999     -9.7523300000000006      1.8790100000000001