(written by ASE)

888 atoms
9 atom types

0.0      21.553999999999998  xlo xhi
0.0      21.553999999999998  ylo yhi
0.0                  21.544  zlo zhi

Atoms # atomic

     1   2     -32.850200000000001                -13.2387      20.885000000000002
     2   4     -33.948500000000003     -13.266500000000001      20.758700000000001
     3   4     -32.512599999999999                -13.2796      21.971299999999999
     4   7     -32.420499999999997     -11.968500000000001                 20.3825
     5   2     -31.898499999999999     -12.149699999999999      19.126200000000001
     6   7     -31.409199999999998     -11.277699999999999      18.477799999999998
     7   7     -31.995999999999999     -13.472300000000001      18.799399999999999
     8   2                -32.1477                -14.2813      20.084299999999999
     9   4     -31.173100000000002     -14.464600000000001      20.498200000000001
    10   4     -32.647799999999997                -15.1457      19.877500000000001
    11   2     -26.356400000000001     -6.9897200000000002      6.4762300000000002
    12   4                -25.5989     -7.4947299999999997      7.1817900000000003
    13   4     -26.245799999999999      15.611800000000001      6.6371099999999998
    14   7     -27.739899999999999                -7.42652      6.5986200000000004
    15   2                -28.2056     -7.7472099999999999      5.3250500000000001
    16   7     -29.319700000000001     -8.1888400000000008      5.0842700000000001
    17   7     -27.307099999999998     -7.4818699999999998      4.4029999999999996
    18   2     -25.973700000000001     -7.3566200000000004                 5.03925
    19   4     -25.360600000000002                -6.56792      4.5441099999999999
    20   4                -25.5486     -8.3823899999999991      4.9582499999999996
    21   2     -28.334800000000001     -2.4099699999999999      3.7437100000000001
    22   4                -29.3935     -2.6706400000000001      3.7616999999999998
    23   4     -27.688500000000001     -2.9583900000000001      4.4257200000000001
    24   7     -28.304099999999998    -0.95221199999999995      3.9298899999999999
    25   2                -27.4071    -0.38385000000000002                 3.09727
    26   7     -26.990200000000002     0.74916300000000002      3.2675900000000002
    27   7     -26.939699999999998     -1.3278799999999999      2.2247499999999998
    28   2     -27.791499999999999     -2.5105900000000001      2.2995700000000001
    29   4     -27.132200000000001     -3.3886099999999999                 2.06711
    30   4                -28.6388     -2.3238300000000001      1.6147800000000001
    31   2                -15.7873                0.996255     -3.5364499999999999
    32   4     -15.296099999999999              -0.0294448                -3.48068
    33   4     -16.831099999999999     0.75511399999999995     -3.6699999999999999
    34   7     -15.256600000000001      1.7348300000000001     -4.6615799999999998
    35   2     -14.817299999999999      2.9681500000000001     -4.2550699999999999
    36   7                -14.2996      3.8178800000000002     -4.9484199999999996
    37   7                -14.9476      3.1457199999999998                -2.92252
    38   2                -15.4183      1.8956900000000001     -2.2808199999999998
    39   4     -16.283100000000001      2.2290800000000002     -1.6223399999999999
    40   4     -14.597899999999999      1.4113199999999999                 -1.7884
    41   2                -21.4541     -6.1121699999999999      17.892600000000002
    42   4     -20.904199999999999     -5.1567999999999996      17.692299999999999
    43   4     -20.991299999999999     -7.0172600000000003                 17.3826
    44   7     -22.850300000000001     -5.9876300000000002      17.604199999999999
    45   2     -23.626899999999999     -5.9966499999999998      18.732299999999999
    46   7                -24.8508     -5.9909800000000004      18.741299999999999
    47   7     -22.876799999999999     -6.0753500000000003                 19.8261
    48   2     -21.462900000000001                -6.22302      19.466999999999999
    49   4     -21.021699999999999                -7.18954                 19.8977
    50   4     -20.947700000000001     -5.3843100000000002      19.801200000000001
    51   2                -16.9208                 10.9833      15.013199999999999
    52   4     -16.047699999999999                 11.6145      15.047800000000001
    53   4     -17.456600000000002      10.904400000000001                 15.9183
    54   7     -16.388999999999999                -11.9191      14.405900000000001
    55   2     -17.436699999999998                 -12.395                 13.7014
    56   7     -17.497199999999999                -13.5586      13.505800000000001
    57   7     -18.277799999999999                 10.1012                  13.315
    58   2                -17.8065                 11.3667                 13.8263
    59   4                -18.6388      12.032400000000001                 14.2438
    60   4     -17.267499999999998      11.844799999999999                 12.9215
    61   2     -20.406300000000002     -2.0197099999999999      17.057200000000002
    62   4     -21.366800000000001     -1.6534199999999999      16.619700000000002
    63   4                 -20.096                -2.84124      16.362100000000002
    64   7     -20.493600000000001     -2.5582400000000001      18.440000000000001
    65   2                -19.3401                  -2.266      19.115500000000001
    66   7     -19.072800000000001     -2.6881300000000001      20.274999999999999
    67   7     -18.608499999999999                -1.42906                 18.3535
    68   2                -19.3477               -0.920933      17.194700000000001
    69   4                -18.6235    -0.92031499999999999                 16.2834
    70   4     -19.695499999999999     0.10677300000000001                 17.4971
    71   2     -26.589700000000001      5.5622800000000003                -1.82043
    72   4                -25.9236      5.9082800000000004    -0.98516700000000001
    73   4     -26.148099999999999      4.7713700000000001     -2.3690600000000002
    74   7     -26.769400000000001      6.6299700000000001     -2.8877199999999998
    75   2                -27.9682                -14.3308                 -2.6837
    76   7     -28.269200000000001                -13.3644     -3.3927100000000001
    77   7                -28.7286      6.6544499999999998     -1.7622899999999999
    78   2     -28.084900000000001                 5.39473     -1.3203400000000001
    79   4     -28.681899999999999                 4.51525     -1.5983099999999999
    80   4     -28.094799999999999                 5.24444    -0.25638499999999997
    81   2     -30.352599999999999                -11.9933      9.9135899999999992
    82   4                -31.3171                -11.5001                 10.1616
    83   4                -29.9679                -12.7836      10.449199999999999
    84   7     -29.338100000000001     -10.960699999999999      10.139799999999999
    85   2                -29.1098                 -10.247      9.0377200000000002
    86   7                -28.5029     -9.1773600000000002      8.9877099999999999
    87   7                -29.5456                -10.9841      7.8561199999999998
    88   2     -30.188600000000001                -12.2172      8.3658300000000008
    89   4                -29.4419     -12.976699999999999      8.1297300000000003
    90   4     -31.123000000000001     -12.297800000000001      7.7543499999999996
    91   2     -17.678999999999998     -9.1160099999999993      22.828600000000002
    92   4     -17.398299999999999     -9.3277800000000006      21.761800000000001
    93   4     -17.653700000000001                -10.0566      23.455300000000001
    94   7     -19.077200000000001     -8.5547699999999995      22.809200000000001
    95   2     -18.939499999999999     -7.2202099999999998      22.609999999999999
    96   7                -19.8401     -6.4573200000000002      22.225899999999999
    97   7     -17.628499999999999     -6.8396800000000004      22.896599999999999
    98   2                -16.8765     -7.9660000000000002      23.407699999999998
    99   4                -16.9239     -7.9386299999999999      24.538900000000002
   100   4     -15.814299999999999     -7.8634000000000004      23.135300000000001
   101   2     -18.908200000000001     -4.8585399999999996      8.4011300000000002
   102   4                -18.1813     -4.7091399999999997      9.1422600000000003
   103   4                -18.7196                -5.77841      7.8653399999999998
   104   7     -18.658300000000001                -3.68573      7.4516099999999996
   105   2     -19.441400000000002     -2.6056499999999998      7.9837199999999999
   106   7     -19.293900000000001                -1.50257                 7.49505
   107   7     -20.317799999999998     -2.9994900000000002      8.8725900000000006
   108   2                -20.3094     -4.5270400000000004      8.8226800000000001
   109   4     -21.130299999999998     -4.8034699999999999      8.1482200000000002
   110   4     -20.437999999999999     -4.8632600000000004      9.8341600000000007
   111   2                -24.9619      5.5645699999999998     -5.4684299999999997
   112   4     -25.833600000000001      5.9472699999999996      16.574400000000001
   113   4                -25.3002      4.8617100000000004     -6.2902399999999998
   114   7     -24.238399999999999      4.8677599999999996     -4.4346800000000002
   115   2     -23.018899999999999      5.5018399999999996     -4.2747900000000003
   116   7                -22.3278      5.3490799999999998     -3.2940999999999998
   117   7                -22.8218      6.4652099999999999     -5.2791100000000002
   118   2     -24.078700000000001      6.6098499999999998     -6.0540099999999999
   119   4                -23.7212      6.3350099999999996     -7.0430400000000004
   120   4                -24.3142      7.6713199999999997      15.389699999999999
   121   2     -38.288400000000003                -12.9626                 22.3398
   122   4                -39.3765                -12.7102      22.510000000000002
   123   4                -37.8446     -12.732900000000001      23.321899999999999
   124   7     -37.590800000000002                -12.0648      21.352599999999999
   125   2                -36.7791     -12.784800000000001      20.532800000000002
   126   7                -36.0458                  -12.32                 19.6602
   127   7     -36.861699999999999                -14.0983                 20.8278
   128   2     -37.877400000000002                -14.3842      21.752400000000002
   129   4     -37.410800000000002                -14.9617                 22.5687
   130   4     -38.603700000000003                -15.0345      21.215800000000002
   131   2     -16.765999999999998     -7.0982599999999998      19.129200000000001
   132   4                -16.4862     -6.9522300000000001                 20.1983
   133   4     -16.545500000000001     -6.1128600000000004      18.590499999999999
   134   7     -18.225300000000001     -7.2714999999999996      19.174700000000001
   135   2     -18.618099999999998     -8.2752199999999991      18.322700000000001
   136   7     -19.743300000000001     -8.5129699999999993      17.940300000000001
   137   7                -17.4862     -8.9594900000000006      17.921800000000001
   138   2                -16.3719     -8.4541500000000003      18.622599999999998
   139   4                -15.5816     -8.3389100000000003                 17.9314
   140   4                -16.0943     -9.1513799999999996                 19.4434
   141   2                -10.5304                -4.08847      5.2679400000000003
   142   4     -10.923400000000001     -3.6272700000000002      4.3533900000000001
   143   4     -32.787999999999997     -4.0026200000000003      6.1311600000000004
   144   7                -30.8062     -3.4514800000000001      5.6882799999999998
   145   2     -29.984400000000001     -4.4431900000000004      6.1086799999999997
   146   7     -29.017299999999999     -4.1760099999999998      6.7415799999999999
   147   7     -8.9164999999999992     -5.7107099999999997      5.8994600000000004
   148   2     -10.059200000000001     -5.5602299999999998      4.9823599999999999
   149   4                -10.7746     -6.3410200000000003      5.1716300000000004
   150   4                -9.80776                 -5.5526      3.8396300000000001
   151   2     -26.299600000000002                -11.4909                 12.3224
   152   4     -25.860499999999998                -10.6883      12.937900000000001
   153   4     -26.822900000000001                -11.1294      11.450100000000001
   154   7                -27.3872                -12.1762                 13.0938
   155   2                -26.8291                -13.2285      13.659800000000001
   156   7     -27.299399999999999                -13.8933                 14.5678
   157   7     -25.624199999999998     -13.542199999999999                 13.1157
   158   2     -25.403099999999998     -12.723000000000001                 11.9276
   159   4                -25.8767      8.2603799999999996                 11.0999
   160   4     -24.351199999999999      9.0069599999999994                  11.818
   161   2     -37.209899999999998     -4.0121500000000001      19.352399999999999
   162   4     -36.738900000000001                -4.71631      18.657399999999999
   163   4                -38.2697     -4.0403599999999997      19.302600000000002
   164   7     -36.723799999999997     -2.6411600000000002      18.982099999999999
   165   2     -36.262799999999999     -2.1035300000000001      20.126100000000001
   166   7     -14.231299999999999    -0.98735099999999998                 20.1632
   167   7                -36.4056                -2.88856      21.240500000000001
   168   2     -36.735599999999998     -4.2449700000000004      20.834299999999999
   169   4     -37.506100000000004     -4.6418400000000002      21.447800000000001
   170   4     -35.822099999999999     -4.7586700000000004      20.973800000000001
   171   2                -12.0006     -5.2628399999999997                 14.3528
   172   4     -11.252599999999999     -5.9506500000000004                 14.6213
   173   4                -11.7081     -4.9203700000000001                 13.3574
   174   7     -11.798299999999999     -4.0071300000000001                 15.1172
   175   2     -12.541700000000001     -4.0411299999999999      16.209599999999998
   176   7                -12.4297     -3.3464299999999998      17.232600000000001
   177   7                -13.5395     -5.0077699999999998      16.070900000000002
   178   2     -13.452500000000001                -5.52074                 14.6853
   179   4                -14.1614     -5.0144599999999997                  14.035
   180   4                  -13.68     -6.5815099999999997                 14.6257
   181   2     -22.179300000000001                -11.8847      4.5587299999999997
   182   4     -22.434699999999999      10.606400000000001      4.0720299999999998
   183   4     -22.954000000000001     -12.351100000000001      5.0822700000000003
   184   7     -21.072900000000001      10.113300000000001      5.4493499999999999
   185   2                -20.1129                -12.3796      5.3283899999999997
   186   7     -19.178000000000001     -12.438700000000001      6.0969800000000003
   187   7     -20.401299999999999                -13.2971      4.3797499999999996
   188   2     -21.561399999999999                -12.9016      3.6340400000000002
   189   4     -22.255199999999999                -13.7136      3.6032899999999999
   190   4                -21.2713                -12.5083      24.222300000000001
   191   2     -24.361699999999999    -0.90151300000000001      18.570499999999999
   192   4                -23.5184     -1.0122800000000001      19.207999999999998
   193   4                -24.4681     0.16540299999999999      18.485600000000002
   194   7     -25.555900000000001                 -1.2725      19.414400000000001
   195   2     -26.330300000000001     -2.1694499999999999      18.722899999999999
   196   7                 -27.413     -2.5984799999999999                 19.1084
   197   7                -25.7897     -2.5193300000000001      17.503499999999999
   198   2                -24.5642     -1.7262299999999999      17.223199999999999
   199   4     -24.692399999999999                -1.11704      16.308499999999999
   200   4     -23.723600000000001     -2.3732099999999998      17.226900000000001
   201   2     -23.013500000000001     -2.6787999999999998                 21.6462
   202   4     -22.797699999999999     -1.6290199999999999      21.764399999999998
   203   4     -22.633600000000001                -2.86619      20.607800000000001
   204   7     -24.467300000000002     -2.9118300000000001      21.475000000000001
   205   2     -24.783000000000001     -4.0989300000000002      21.962800000000001
   206   7     -25.863199999999999     -4.6754800000000003      21.792000000000002
   207   7                -23.7807     -4.6135099999999998      1.1952499999999999
   208   2     -22.602599999999999                -3.65693      1.2382299999999999
   209   4     -21.760100000000001     -4.3072100000000004                0.895061
   210   4                -22.4422                -3.37866      2.2823600000000002
   211   2     -10.920299999999999                -7.80905      19.941400000000002
   212   4                -10.2278     -8.4195899999999995      19.424499999999998
   213   4                -10.5182     -7.2713099999999997      20.793600000000001
   214   7     -12.043699999999999     -8.6020299999999992      20.510100000000001
   215   2     -13.220599999999999     -7.8901899999999996                 20.4678
   216   7     -14.216799999999999     -8.2195099999999996      21.036899999999999
   217   7     -13.033099999999999     -6.8440500000000002     -1.9802999999999999
   218   2                -11.7011     -6.7734800000000002                 -2.5261
   219   4     -32.995800000000003     -5.7486300000000004     -2.2856900000000002
   220   4     -11.601800000000001     -6.8669799999999999                -3.62121
   221   2                -22.2254                 13.8445                 14.8066
   222   4     -21.608899999999998      14.735300000000001                 14.5276
   223   4     -22.793399999999998      13.939500000000001                 15.7133
   224   7                -21.4678                 12.6126      14.898999999999999
   225   2     -22.257000000000001      11.572100000000001                 14.3735
   226   7     -22.034500000000001      10.401999999999999      14.581099999999999
   227   7     -23.244199999999999      12.055300000000001                 13.6113
   228   2     -23.186499999999999                 13.5364                 13.5869
   229   4     -24.200500000000002                 13.8544      13.611700000000001
   230   4     -22.708200000000001      13.812200000000001      12.634399999999999
   231   2     -34.879600000000003      7.8827299999999996      17.152100000000001
   232   4     -34.409500000000001                 8.82226                 17.1464
   233   4     -34.646299999999997      7.2225999999999999      18.006900000000002
   234   7     -34.457799999999999                 7.21082                 15.9398
   235   2     -35.513399999999997      7.0422399999999996                 15.1227
   236   7     -13.874700000000001                 6.68954                 13.9377
   237   7     -36.656300000000002      7.3587499999999997                 15.7227
   238   2     -36.452500000000001      8.0454799999999995                 16.9878
   239   4     -37.036499999999997      7.4990500000000004      17.740400000000001
   240   4     -36.790399999999998      9.0661400000000008      16.908200000000001
   241   2     -33.697499999999998     -8.6756700000000002      6.2277899999999997
   242   4     -33.980600000000003     -7.7027999999999999      5.9411500000000004
   243   4     -34.526400000000002     -9.4096600000000006      6.0634899999999998
   244   7     -33.452100000000002     -8.6330899999999993      7.6572300000000002
   245   2                -32.1158     -8.4124199999999991      7.8015400000000001
   246   7                -31.5687     -8.1793099999999992      8.8801600000000001
   247   7     -31.405000000000001     -8.5684900000000006      6.6823899999999998
   248   2     -32.298499999999997     -9.0836500000000004      5.6274899999999999
   249   4     -32.157899999999998                -10.1854                  5.5987
   250   4                -31.9588     -8.6129800000000003                 4.67178
   251   2     -24.684699999999999     -6.7414800000000001      10.050700000000001
   252   4     -24.186299999999999     -5.9735800000000001      10.721500000000001
   253   4                -24.0062     -6.9937899999999997      9.2495200000000004
   254   7     -25.866599999999998     -6.1342699999999999      9.4518400000000007
   255   2     -26.878699999999998     -6.4954400000000003                 10.2677
   256   7     -28.006499999999999                -6.12385      10.222300000000001
   257   7                -26.4038     -7.4599599999999997      11.145200000000001
   258   2     -25.202400000000001     -8.0097500000000004                  10.661
   259   4                -25.1571     -8.7913800000000002      9.8663799999999995
   260   4                -24.6326     -8.4412599999999998                 11.4496
   261   2     -25.327400000000001      9.5012500000000006      16.819199999999999
   262   4     -24.609400000000001      9.4179099999999991      15.994300000000001
   263   4     -26.299099999999999                 9.06325                 16.4925
   264   7     -25.619499999999999                 10.9297      17.076599999999999
   265   2     -24.692599999999999      11.348000000000001      18.063500000000001
   266   7                -24.4084      12.529500000000001      18.218800000000002
   267   7     -24.174099999999999      10.317399999999999      18.760899999999999
   268   2     -24.802900000000001      9.0991599999999995      18.190100000000001
   269   4     -25.690799999999999      8.8708100000000005      18.837199999999999
   270   4     -24.106000000000002      8.2704400000000007      18.250699999999998
   271   2                -31.1831     -8.1619499999999992                 12.0122
   272   4     -30.835599999999999     -7.9449899999999998                 11.0115
   273   4     -32.128999999999998     -8.8221399999999992                 11.9514
   274   7     -31.539200000000001     -6.8364700000000003                 12.6295
   275   2     -30.398299999999999     -6.3621100000000004      13.187799999999999
   276   7     -30.007899999999999     -5.2379899999999999                 13.4626
   277   7                -29.5701     -7.4062400000000004                 13.5192
   278   2     -30.061800000000002     -8.6318300000000008      12.865399999999999
   279   4     -30.441800000000001     -9.2928800000000003      13.601000000000001
   280   4     -29.201599999999999     -9.0049299999999999                 12.2927
   281   2     -35.538899999999998      10.679500000000001                 10.9748
   282   4     -36.623699999999999      10.564500000000001                  11.028
   283   4     -35.266300000000001                 11.5684                 11.5898
   284   7     -35.336399999999998     -10.894399999999999      9.5197599999999998
   285   2     -34.559899999999999                -11.9231      9.1529399999999992
   286   7     -34.155999999999999                -12.1732      8.0370200000000001
   287   7     -34.151000000000003     -12.597799999999999                 10.2858
   288   2                -34.9619      9.3451500000000003                 11.4268
   289   4     -34.401499999999999      9.3382400000000008                 12.3482
   290   4                 -35.753      8.5670699999999993      11.594099999999999
   291   2     -25.129300000000001      5.9013900000000001                 5.29352
   292   4     -25.255600000000001      6.0960400000000003      6.4365699999999997
   293   4     -24.945699999999999      6.9077599999999997      4.8409000000000004
   294   7     -26.436199999999999      5.5468200000000003      4.7690900000000003
   295   2     -26.327100000000002      4.6225500000000004      3.8363399999999999
   296   7                 -27.262      4.2744799999999996      3.1774200000000001
   297   7     -25.090199999999999                 4.07341      3.7624900000000001
   298   2     -24.288799999999998                 4.70939      4.8160400000000001
   299   4                -23.3127      5.0838999999999999      4.4065599999999998
   300   4     -24.178100000000001      3.9810099999999999      5.6498299999999997
   301   2                -26.0123                 10.3985      5.8640699999999999
   302   4     -26.848199999999999                 11.0501      5.5627800000000001
   303   4     -25.436399999999999                 10.0482      4.9343899999999996
   304   7     -26.524899999999999      9.1827799999999993      6.4717000000000002
   305   2                -26.2423                 9.24207      7.8367399999999998
   306   7     -26.796099999999999      8.5451499999999996      8.6343899999999998
   307   7     -25.464099999999998                 10.2996      8.0896500000000007
   308   2                -25.1435                 11.0395      6.9273199999999999
   309   4     -24.037500000000001                  10.971      6.7454799999999997
   310   4                -25.4221                 12.0724      7.0196300000000003
   311   2     -20.792100000000001     -9.7806899999999999      9.5822299999999991
   312   4     -19.957000000000001     -9.6039700000000003      8.9157600000000006
   313   4     -21.605499999999999     -10.253299999999999      9.0191199999999991
   314   7     -21.371200000000002     -8.4777699999999996      9.9463399999999993
   315   2                -20.8186     -8.1693599999999993      11.194800000000001
   316   7     -20.907299999999999     -7.0546899999999999                 11.7492
   317   7     -20.298999999999999     -9.2279800000000005                 11.8095
   318   2     -20.567599999999999                -10.4406      10.957000000000001
   319   4                -21.4543     -10.889200000000001                 11.2117
   320   4     -19.748000000000001     -11.115500000000001                 11.1395
   321   2     -17.916899999999998      5.1034699999999997     -5.1221899999999998
   322   4     -18.014600000000002      5.9847700000000001     -5.7875399999999999
   323   4     -16.959800000000001      5.2635399999999999     -4.5789999999999997
   324   7     -39.431100000000001      3.9130099999999999                -5.96821
   325   2     -39.883200000000002      2.8435600000000001     -5.2161200000000001
   326   7                 -39.811                  1.6832                 -5.4371
   327   7     -40.569299999999998      3.3524500000000002     -4.1459900000000003
   328   2                -40.7057                 4.76309     -4.3469800000000003
   329   4     -40.840699999999998      5.1473399999999998                -3.29277
   330   4                -41.5794      4.7952599999999999     -5.0155900000000004
   331   2                -22.7986      2.0510700000000002      13.709099999999999
   332   4     -23.694199999999999      1.6485799999999999                 13.3468
   333   4     -22.478999999999999      3.0113699999999999                 13.2448
   334   7                 -21.791     0.95009699999999997                 13.3163
   335   2     -21.386399999999998     0.40135100000000001      14.484400000000001
   336   7     -20.579599999999999    -0.54158700000000004                 14.6099
   337   7     -22.045500000000001     0.83701199999999998                 15.5543
   338   2     -22.758600000000001      1.9935099999999999                 15.2075
   339   4     -22.182099999999998      2.8389500000000001                 15.6656
   340   4                -23.7651      1.9479200000000001                 15.6792
   341   2                -28.6251                 2.21441                 11.7902
   342   4                -28.7712      3.1082299999999998                 11.2464
   343   4     -28.171299999999999                 1.49855                  11.137
   344   7                -30.0092      1.8102100000000001                 12.0687
   345   2     -30.260999999999999      2.0673499999999998                 13.3841
   346   7     -31.401700000000002      1.9350099999999999      13.845800000000001
   347   7     -29.190000000000001      2.4947499999999998                 14.0952
   348   2     -28.043700000000001                 2.32294      13.181900000000001
   349   4     -27.454699999999999      1.4626300000000001      13.520799999999999
   350   4     -27.437799999999999      3.1690200000000002      13.329000000000001
   351   2                -23.7866     -9.1934799999999992                0.104452
   352   4     -23.828099999999999     -8.4274199999999997    -0.67022000000000004
   353   4     -23.488299999999999                -10.1318    -0.39630100000000001
   354   7     -25.101600000000001     -9.3961100000000002     0.78318600000000005
   355   2     -24.858000000000001     -9.6376600000000003      2.0623800000000001
   356   7     -25.698599999999999     -9.8888099999999994      2.9022399999999999
   357   7                -23.5213     -9.5504899999999999      2.4079299999999999
   358   2     -22.853100000000001     -8.7746300000000002                 1.31263
   359   4     -21.822900000000001     -9.0441599999999998      1.1495599999999999