(written by ASE)

915 atoms
9 atom types

0.0      21.712770568302616  xlo xhi
0.0      21.712770568302616  ylo yhi
0.0      21.712770568302616  zlo zhi

Atoms # atomic

     1   2                 14.4977      3.6826400000000001      5.8768500000000001
     2   2                 15.6358      2.6033499999999998      5.8575600000000003
     3   7      16.756799999999998      3.2354099999999999      5.1300400000000002
     4   2      16.363700000000001                 4.50589      4.8838200000000001
     5   7      16.971299999999999      5.3296599999999996      4.2179099999999998
     6   7      15.164999999999999      4.8596500000000002      5.3491499999999998
     7   4                 14.0648      3.8966400000000001      6.8404400000000001
     8   4                 13.6342      3.4601500000000001      5.1967800000000004
     9   4                 15.3626      1.7332000000000001      5.2212199999999998
    10   4                 15.9916                 2.43377      6.8822099999999997
    11   2      3.5165999999999999                 12.2957      22.997499999999999
    12   2                 4.09877      13.514099999999999      23.729600000000001
    13   7      3.6242200000000002      13.302300000000001      25.146999999999998
    14   2      3.3479800000000002      11.953200000000001      25.239100000000001
    15   7                 3.12412      11.338900000000001      26.258099999999999
    16   7                 3.55837      11.303699999999999      24.055199999999999
    17   4      4.2136800000000001      11.902799999999999      22.229299999999999
    18   4      2.4686300000000001                 12.5244      22.622299999999999
    19   4      3.7167400000000002      14.513199999999999      23.431000000000001
    20   4      5.2138900000000001      13.530900000000001                 23.7639
    21   2                 3.04331      2.8272599999999999      16.340900000000001
    22   2                 4.37751      2.1555200000000001                 15.9093
    23   7      4.5938600000000003      2.7033900000000002                 14.6401
    24   2      3.5457000000000001      3.4118599999999999                 14.2255
    25   7      3.5197699999999998                 3.86639                 13.0746
    26   7      2.4734500000000001      3.2849400000000002                 15.0434
    27   4      3.1242100000000002                 3.78938      16.777799999999999
    28   4      2.2281499999999999      2.1760199999999998      16.744199999999999
    29   4      4.1736199999999997                 1.10545                 15.8017
    30   4      5.1806599999999996                 2.40787      16.592300000000002
    31   2      11.744199999999999    -0.33965699999999999                -1.32376
    32   2                 10.5114     0.44931199999999999     -1.9649399999999999
    33   7      10.529500000000001      1.7012400000000001                -1.09737
    34   2      11.816800000000001      1.9208799999999999    -0.61859200000000003
    35   7                  12.193      2.9641600000000001   -0.082094100000000003
    36   7                 12.6249     0.81296199999999996    -0.90352699999999997
    37   4      12.341799999999999    -0.82030099999999995     -2.1220599999999998
    38   4      11.482100000000001                -1.01031               -0.497477
    39   4      9.5485600000000002   -0.053792699999999999     -1.8031900000000001
    40   4                 10.6439     0.63825200000000004     -3.0466600000000001
    41   2      8.6075800000000005      6.2388300000000001                 13.8977
    42   2                 7.97994      7.1190899999999999      14.989699999999999
    43   7      7.1220999999999997      6.1845100000000004                 15.7173
    44   2      7.4027200000000004                 4.91859      15.274900000000001
    45   7      6.9462900000000003      3.8631600000000001      15.645200000000001
    46   7      8.3896200000000007      4.8881800000000002                 14.3665
    47   4                 9.70486      6.4307600000000003      13.751099999999999
    48   4      8.0198199999999993      6.3125499999999999      13.004099999999999
    49   4                 7.39255      7.9421799999999996      14.636100000000001
    50   4      8.6955500000000008      7.5002300000000002                 15.7271
    51   2      11.343999999999999      1.9201299999999999      9.1930700000000005
    52   2                 11.0815      3.0550600000000001      8.2082300000000004
    53   7      10.232900000000001      2.3563100000000001      7.2228899999999996
    54   2      9.6709700000000005      1.1587700000000001      7.6871200000000002
    55   7      8.7444100000000002     0.54346700000000003      7.1318200000000003
    56   7      10.203900000000001     0.91115999999999997      8.9337999999999997
    57   4                 11.2819      2.1889699999999999                 10.2841
    58   4      12.290800000000001                 1.36609      9.0116399999999999
    59   4      11.999599999999999      3.4209700000000001      7.6753900000000002
    60   4                 10.4199      3.8897300000000001      8.6432599999999997
    61   2     -11.293900000000001     -7.7797200000000002      9.9414200000000008
    62   2                 -11.766     -7.8961899999999998      8.4956300000000002
    63   7                -10.8393     -8.8799399999999995      7.9293199999999997
    64   2     -9.7761800000000001     -8.9612499999999997      8.7357200000000006
    65   7     -8.7818000000000005     -9.6678899999999999      8.5889399999999991
    66   7     -9.8891299999999998     -8.1650799999999997      9.8294099999999993
    67   4     -11.813700000000001     -8.4904600000000006      10.614000000000001
    68   4     -11.215199999999999     -6.7141400000000004      10.186400000000001
    69   4                -11.6008     -6.9993600000000002      7.8773999999999997
    70   4                -12.7301     -8.4587299999999992      8.4700399999999991
    71   2                  11.731                 25.1645     -7.5558300000000003
    72   2                 12.4803      24.627199999999998     -6.3719999999999999
    73   7      13.656000000000001      23.995100000000001     -6.9600999999999997
    74   2                 13.2788                 23.4588     -8.1569500000000001
    75   7                 13.8315                 22.5823     -8.7091700000000003
    76   7      12.235200000000001      24.233599999999999     -8.6258300000000006
    77   4                 12.0517      26.197299999999998     -7.9128600000000002
    78   4      10.663500000000001      25.064900000000002     -7.3820100000000002
    79   4                 11.9495                 23.8413     -5.7975500000000002
    80   4                 12.8733      25.319299999999998                -5.61972
    81   2      6.7494199999999998      14.179500000000001      6.2244700000000002
    82   2      5.2887700000000004                 14.6602      6.1444299999999998
    83   7      4.7014500000000004                 14.3217      7.4358399999999998
    84   2      5.5689700000000002      13.495200000000001      8.0927199999999999
    85   7      5.4302400000000004      13.136100000000001      9.2274399999999996
    86   7      6.7321799999999996      13.337899999999999      7.3664800000000001
    87   4                 7.51309      15.040800000000001      6.2992100000000004
    88   4      7.0762700000000001                 13.5785      5.4243600000000001
    89   4      4.6447900000000004                 14.2485      5.3485399999999998
    90   4      5.2572999999999999                 15.7354      6.0289299999999999
    91   2    -0.68847100000000006      11.104100000000001      3.7170700000000001
    92   2               -0.392928      12.526300000000001      3.6802800000000002
    93   7     0.36326599999999998      12.611599999999999      2.3096000000000001
    94   2    -0.10263700000000001                 11.6134      1.5436000000000001
    95   7     0.12092700000000001      11.394600000000001                0.366342
    96   7    -0.89267600000000003      10.797000000000001      2.2856700000000001
    97   4     -1.5921799999999999                 10.7819      4.2622400000000003
    98   4     0.17097999999999999      10.543200000000001      4.1226000000000003
    99   4     0.37310500000000002      12.843299999999999      4.4255100000000001
   100   4                -1.24102      13.212300000000001                 3.52332
   101   2      1.1639299999999999      7.2375100000000003      6.8349799999999998
   102   2                 1.08525                  8.1212      5.5777700000000001
   103   7               -0.216061      8.7013499999999997      5.8501799999999999
   104   2    -0.48114099999999999      8.8168100000000003      7.2081900000000001
   105   7                 -1.3928      9.4979499999999994      7.6318599999999996
   106   7     0.44777899999999998      8.0309699999999999                 7.85161
   107   4      2.1711999999999998      6.9410800000000004      7.0791399999999998
   108   4     0.60174799999999995      6.2834599999999998      6.7744099999999996
   109   4     0.96795299999999995      7.5740299999999996      4.6058000000000003
   110   4                 1.87025      8.7975300000000001      5.4548699999999997
   111   2     -7.0937599999999996     -1.7368600000000001     -1.6362699999999999
   112   2     -5.7582300000000002     -2.4117799999999998     -1.8479300000000001
   113   7     -6.1321700000000003                -3.42774     -2.8983099999999999
   114   2                -7.46035     -3.6238800000000002     -2.8081900000000002
   115   7     -8.1107700000000005     -4.6006200000000002     -3.1813099999999999
   116   7     -8.0661799999999992     -2.6015600000000001                -2.21353
   117   4     -7.1156899999999998    -0.75118600000000002     -2.0535299999999999
   118   4     -7.2764800000000003     -1.7991699999999999    -0.52834999999999999
   119   4     -5.2199400000000002                -2.90239     -1.0273600000000001
   120   4     -5.0307300000000001     -1.8525400000000001     -2.3643299999999998
   121   2                 21.7744      16.491900000000001      3.5238900000000002
   122   2                 22.7196                 15.9168      4.7100200000000001
   123   7      23.933399999999999      16.825199999999999      4.7404999999999999
   124   2                 23.3856                 18.0562      4.3178900000000002
   125   7                 23.9377      19.133900000000001      4.3220700000000001
   126   7      22.235499999999998                 17.8979      3.6804600000000001
   127   4      20.742899999999999      16.567499999999999      3.7745000000000002
   128   4      21.936699999999998      16.154599999999999      2.4916499999999999
   129   4      23.270900000000001      14.989800000000001      4.4988299999999999
   130   4      22.240500000000001      15.926600000000001      5.7181199999999999
   131   2                 11.1732      18.853400000000001                 15.5922
   132   2      12.247400000000001      19.815300000000001                 15.7623
   133   7      13.446400000000001      18.985900000000001      16.033999999999999
   134   2      13.283799999999999      17.863700000000001      15.349500000000001
   135   7      14.144600000000001      17.051100000000002                 15.0436
   136   7                 12.0085      17.708600000000001                 14.9877
   137   4      10.465299999999999      19.190100000000001                 14.8339
   138   4                 10.7173      18.367699999999999      16.512599999999999
   139   4                 12.1486      20.393799999999999      16.672999999999998
   140   4      12.508900000000001      20.459199999999999                 14.9186
   141   2                  24.241                  26.465      5.2689700000000004
   142   2                 23.8278      25.788499999999999      6.5845700000000003
   143   7      22.389299999999999      25.477699999999999      6.4994800000000001
   144   2      21.925699999999999      26.052800000000001      5.3081199999999997
   145   7      20.756499999999999                 25.9682      4.9079699999999997
   146   7      22.892700000000001      26.601600000000001                 4.56595
   147   4                 24.7989      25.809799999999999      4.5961800000000004
   148   4      24.733799999999999      27.442299999999999      5.2592400000000001
   149   4      24.030799999999999                 26.3828                 7.46204
   150   4      24.317299999999999      24.826699999999999      6.5487000000000002
   151   2                -4.13056      16.883400000000002     -4.3936500000000001
   152   2     -3.5499000000000001      16.015499999999999     -5.5744499999999997
   153   7     -3.5869300000000002      16.917000000000002     -6.7021499999999996
   154   2                -3.52942      18.170200000000001     -6.2167300000000001
   155   7     -3.3218399999999999                 19.1572     -6.8896199999999999
   156   7     -3.7181199999999999                  18.198     -4.8202600000000002
   157   4                -3.55152      16.593900000000001     -3.5272999999999999
   158   4     -5.2924899999999999                 16.8779     -4.2359099999999996
   159   4     -4.2339900000000004      15.241400000000001     -5.9064500000000004
   160   4                -2.55402      15.647399999999999                -5.39046
   161   2    -0.73941500000000004                 12.5541      12.762600000000001
   162   2     0.71982299999999999      12.285399999999999                 12.5661
   163   7     0.82997600000000005                 10.7379      12.418200000000001
   164   2    -0.41208699999999998      10.340400000000001      12.059200000000001
   165   7               -0.729132      9.2357800000000001      11.688000000000001
   166   7     -1.3196600000000001                  11.317      12.262600000000001
   167   4                -1.07961                 13.4025      12.123900000000001
   168   4    -0.98666399999999999                 12.5375                 13.8393
   169   4      1.3628800000000001      12.640599999999999      13.381500000000001
   170   4                 1.07759                 12.6776      11.606400000000001
   171   2      20.079699999999999                 25.2104      22.349299999999999
   172   2      19.132000000000001      24.462199999999999                 21.3904
   173   7      18.598500000000001      23.407800000000002      22.286000000000001
   174   2      18.785499999999999      23.834399999999999                 23.5444
   175   7      18.350899999999999      23.328099999999999      24.575600000000001
   176   7                 19.4237      25.041599999999999      23.572299999999998
   177   4      20.207699999999999      26.261600000000001      22.051200000000001
   178   4      21.084299999999999      24.708200000000001      22.457599999999999
   179   4      19.578800000000001      24.050000000000001      20.538799999999998
   180   4      18.215399999999999      25.027100000000001      21.117599999999999
   181   2      16.992599999999999                 10.8711                 13.6181
   182   2      18.011600000000001                 11.5943                 14.4808
   183   7                 17.7439                 13.0382      13.986000000000001
   184   2      16.518899999999999                 13.1122      13.340400000000001
   185   7                  15.987                 14.1349                 12.9298
   186   7      16.021100000000001                 11.8437      13.168799999999999
   187   4                 16.5077                 10.1008      14.066800000000001
   188   4      17.466999999999999      10.450699999999999                 12.6495
   189   4                 19.0594      11.360200000000001      14.358599999999999
   190   4      17.731200000000001                 11.6646      15.531700000000001
   191   2                  15.988                 24.4863      19.836500000000001
   192   2      15.707700000000001      25.773299999999999                 19.0046
   193   7                 14.6516      25.397500000000001                 18.0382
   194   2                 14.1386      24.165199999999999      18.427800000000001
   195   7                 13.1218                 23.6419      18.000900000000001
   196   7                 15.0259      23.521599999999999                 19.3401
   197   4                 15.7927      24.665800000000001      20.949999999999999
   198   4      17.026399999999999      23.992599999999999                 19.6706
   199   4      16.543099999999999      26.200900000000001      18.442799999999998
   200   4      15.253500000000001                 26.5763      19.649799999999999
   201   2      14.199199999999999      14.577299999999999                 21.2148
   202   2      15.601699999999999      15.100099999999999      21.356100000000001
   203   7      16.461500000000001                 14.2544      20.486799999999999
   204   2                  15.619      13.353300000000001                 19.8081
   205   7                 15.9335                 12.4117      19.065200000000001
   206   7      14.357900000000001      13.392300000000001      20.273900000000001
   207   4                 13.4673      15.282299999999999      20.746600000000001
   208   4      13.800800000000001      14.075900000000001                 22.1248
   209   4                 15.8841      14.985099999999999      22.402999999999999
   210   4      15.533799999999999      16.171399999999998      21.081499999999998
   211   2                 20.2182                 14.5756                 19.9436
   212   2      19.584099999999999      13.690099999999999      21.024000000000001
   213   7      19.011299999999999                 12.6173      20.319400000000002
   214   2                 19.0913                  12.916      18.931699999999999
   215   7                 18.5458      12.147500000000001                 18.0946
   216   7      19.564900000000002                 14.1252      18.673100000000002
   217   4                 21.3005                 14.4475      19.795300000000001
   218   4                 20.0121      15.656700000000001                 20.1007
   219   4      18.804300000000001                 14.2669      21.524100000000001
   220   4      20.287800000000001                 13.2818                 21.8429
   221   2     -4.9500400000000004      18.541699999999999      5.6753900000000002
   222   2     -3.7115399999999998      18.353400000000001                  4.7965
   223   7     -3.2023000000000001      19.689800000000002      4.7308899999999996
   224   2     -4.1274199999999999                 20.5609      5.2595900000000002
   225   7     -3.9933200000000002      21.741900000000001      5.3965100000000001
   226   7     -5.2838099999999999      19.948699999999999      5.5204300000000002
   227   4     -4.7750199999999996      18.148700000000002      6.6666400000000001
   228   4     -5.8387200000000004      17.981400000000001      5.3901700000000003
   229   4     -3.9028200000000002      17.955300000000001      3.7978000000000001
   230   4                -2.90937      17.671600000000002      5.1865699999999997
   231   2                 11.0031      17.878499999999999      21.028700000000001
   232   2                 10.0503                 17.6966      22.259699999999999
   233   7      9.7214399999999994                 16.2958      22.251100000000001
   234   2                 10.6541      15.632899999999999                 21.4925
   235   7                 10.7105                 14.4338      21.390899999999998
   236   7      11.436500000000001      16.491700000000002                 20.8263
   237   4                 11.9308                 18.4998                 21.2087
   238   4                 10.4781      18.042000000000002      20.054300000000001
   239   4      9.1788699999999999      18.381900000000002      22.381799999999998
   240   4                 10.5725      17.822900000000001      23.243400000000001
   241   2      5.7405400000000002      21.189299999999999      20.653700000000001
   242   2      6.4798900000000001      22.049499999999998      19.671800000000001
   243   7      5.4442000000000004      22.676400000000001      18.890599999999999
   244   2      4.2870400000000002      22.688500000000001                 19.6693
   245   7                 3.31596      23.406500000000001      19.428899999999999
   246   7      4.4251399999999999      21.853300000000001      20.695499999999999
   247   4      6.1706099999999999      21.246099999999998                 21.6251
   248   4                 5.61761      20.197900000000001      20.273599999999998
   249   4      7.0923299999999996      21.455200000000001      19.002800000000001
   250   4                 7.08101      22.862100000000002      20.147300000000001
   251   2      19.972899999999999      18.951899999999998     0.77798800000000001
   252   2      19.102699999999999      17.716100000000001     0.54814700000000005
   253   7      19.484000000000002      17.328399999999998    -0.80380099999999999
   254   2      20.075700000000001                 18.3764     -1.4133800000000001
   255   7                 20.3918                 18.3612     -2.5884299999999998
   256   7      20.216200000000001      19.438800000000001    -0.59413400000000005
   257   4      20.874300000000002      18.648299999999999                 1.38859
   258   4      19.477399999999999                 19.7852                 1.26397
   259   4      18.001200000000001      17.815799999999999     0.45407700000000001
   260   4      19.373999999999999                 16.9269                 1.24946
   261   2      2.7052100000000001      12.702299999999999     -4.1881300000000001
   262   2      2.2834099999999999                 13.5962     -3.0212599999999998
   263   7                 2.26166      12.668799999999999     -1.8708400000000001
   264   2      3.0596700000000001                 11.6113     -2.1795900000000001
   265   7      3.3997000000000002      10.667199999999999     -1.4769000000000001
   266   7                 3.40157                 11.5748     -3.5276800000000001
   267   4      3.2633999999999999                 13.2934                -4.92828
   268   4      1.8622799999999999      12.157999999999999     -4.6560199999999998
   269   4                  1.3265      14.093500000000001     -3.2126600000000001
   270   4      3.0399799999999999      14.389099999999999     -2.6901600000000001
   271   2      6.3982700000000001      9.7184699999999999      9.5452200000000005
   272   2                 7.88314      9.4850899999999996      9.7858199999999993
   273   7      7.9115700000000002      8.7290500000000009                 11.0299
   274   2      6.7354700000000003      9.0505099999999992      11.722200000000001
   275   7      6.4967199999999998      8.6388599999999993                 12.8409
   276   7      5.8908899999999997      9.7212599999999991      10.967000000000001
   277   4      5.9269499999999997      8.9718699999999991      8.9338099999999994
   278   4      6.1947999999999999      10.639099999999999      9.0431299999999997
   279   4      8.6002600000000005      10.315899999999999      9.8607200000000006
   280   4      8.4173100000000005      8.8378800000000002      9.0929900000000004
   281   2      8.4961199999999995      3.1791299999999998                 12.0364
   282   2      6.9940499999999997      3.2423000000000002                 12.4077
   283   7      6.3355699999999997      2.8287599999999999      11.165800000000001
   284   2      7.2873900000000003      2.0524800000000001      10.375500000000001
   285   7                 6.92082      1.5298499999999999      9.3322199999999995
   286   7      8.5499299999999998      2.2422399999999998      10.796099999999999
   287   4      9.1226800000000008      2.6026500000000001                 12.7628
   288   4      9.1077600000000007      4.0515100000000004      11.777100000000001
   289   4                 6.64208      4.2450799999999997                 12.6602
   290   4                 6.66744      2.5828899999999999      13.229200000000001
   291   2                 15.8287      2.4833599999999998                 11.2319
   292   2      15.502700000000001                 2.98489      9.8471799999999998
   293   7      15.026300000000001      4.3977500000000003                 10.0573
   294   2                 14.7475      4.5497199999999998      11.450900000000001
   295   7      14.298999999999999      5.4711699999999999                 12.0646
   296   7                 14.9978                 3.34457                   12.02
   297   4      16.864699999999999                 2.45974      11.632999999999999
   298   4                 15.5183      1.4557199999999999                 11.4398
   299   4      14.662599999999999      2.5190199999999998      9.3448100000000007
   300   4      16.387799999999999      3.0664099999999999      9.2075899999999997
   301   2      17.889199999999999      8.8322000000000003                 3.81779
   302   2                  17.209      9.4168000000000003      5.0620599999999998
   303   7      17.523499999999999      8.5007900000000003      6.1111399999999998
   304   2      18.331299999999999      7.4929100000000002      5.6257000000000001
   305   7      18.623899999999999      6.5322699999999996      6.2713099999999997
   306   7                 18.7926      7.7998000000000003      4.3205799999999996
   307   4      18.458200000000001      9.6684300000000007      3.2973400000000002
   308   4      17.199000000000002      8.3607300000000002      3.1761300000000001
   309   4      16.142299999999999      9.5649999999999995      5.0707000000000004
   310   4      17.630400000000002      10.393700000000001      5.3311599999999997
   311   2    -0.53349599999999997      17.688600000000001                 13.2121
   312   2      1.0122199999999999      17.923400000000001                 13.1548
   313   7                  1.5908      16.773800000000001      13.796200000000001
   314   2     0.58165299999999998      16.167899999999999                 14.5693
   315   7     0.73321899999999995                  15.145                 15.2179
   316   7    -0.62423499999999998      16.731200000000001                 14.2844
   317   4    -0.85190100000000002                 17.1096      12.368499999999999
   318   4     -1.1603399999999999      18.550899999999999      13.432399999999999
   319   4      1.2877700000000001      18.732900000000001                 13.8659
   320   4      1.3411299999999999                 18.1525      12.144500000000001
   321   2      13.584300000000001     -8.2086100000000002      16.904699999999998
   322   2                 14.8985     -7.6449699999999998      16.227599999999999
   323   7                 15.6218                -8.83108                 15.9011
   324   2      15.043799999999999     -9.9255499999999994      16.504100000000001
   325   7      15.647600000000001     -11.021699999999999      16.484400000000001
   326   7                 13.8392     -9.6129599999999993                 17.0793
   327   4      12.738099999999999     -8.1618600000000008      16.191400000000002
   328   4                 13.3025     -7.7575399999999997      17.874600000000001
   329   4      15.461399999999999     -7.0158100000000001      16.946200000000001
   330   4      14.654500000000001     -7.0936199999999996                 15.3224
   331   2                 15.4467      21.193200000000001                 15.4389
   332   2      16.488800000000001      21.803000000000001                 14.4519
   333   7      16.898199999999999      22.954499999999999      15.227399999999999
   334   2                 16.7318      22.714300000000001      16.532299999999999
   335   7      17.107500000000002      23.477399999999999      17.399100000000001
   336   7                 15.9689      21.607600000000001      16.709599999999998
   337   4      15.385400000000001      20.116800000000001                 15.4107
   338   4                 14.4537      21.623699999999999      15.254300000000001
   339   4      16.101900000000001      22.124099999999999                  13.561
   340   4                 17.2713      21.074000000000002      14.371600000000001
   341   2      20.386900000000001    -0.31933699999999998                 18.2179
   342   2      20.015699999999999    -0.42418600000000001      16.666599999999999
   343   7      20.429200000000002     0.84322600000000003      16.112300000000001
   344   2                 20.5718                 1.75047      17.150300000000001
   345   7      20.815999999999999      2.9559600000000001      17.165500000000002
   346   7      20.419499999999999                 1.12791                 18.3809
   347   4      21.341100000000001    -0.84089599999999998                 18.3873
   348   4                 19.5824               -0.601352                 18.9833
   349   4                 19.0562    -0.61138700000000001                 16.4375
   350   4      20.587800000000001                -1.25502      16.180099999999999
   351   2      5.9480399999999998                  10.715      5.8443100000000001
   352   2      5.6665900000000002      9.7526299999999999      4.7346700000000004
   353   7      6.6033799999999996      8.6685800000000004      4.9596200000000001
   354   2      7.3990799999999997      8.9998500000000003                  5.9802
   355   7      8.3078800000000008      8.3167600000000004      6.3990600000000004
   356   7      7.1635900000000001                 10.1694      6.4408200000000004
   357   4                 5.12798                 10.6073      6.6043700000000003
   358   4      6.0717400000000001                 11.7651      5.4765300000000003
   359   4      5.9166400000000001      10.120799999999999      3.7345100000000002