(written by ASE)

888 atoms
9 atom types

0.0      21.553999999999998  xlo xhi
0.0      21.553999999999998  ylo yhi
0.0                  21.544  zlo zhi

Atoms # atomic

     1   2                -33.9343                -11.4451      20.965399999999999
     2   4                -34.6128                -10.9079      21.612200000000001
     3   4                -33.8932     -12.571400000000001      21.147300000000001
     4   7     -32.624299999999998                -10.9664                 21.3611
     5   2     -31.839099999999998                -10.8294      20.181699999999999
     6   7     -30.659199999999998                -10.5807      20.088200000000001
     7   7     -32.608499999999999                -10.9185      19.048999999999999
     8   2                -34.0261                -11.1007      19.476400000000002
     9   4     -34.281199999999998                -11.9613                 18.8537
    10   4                -34.7119     -10.258100000000001      19.240600000000001
    11   2                -25.5593     -6.5398699999999996      4.4415699999999996
    12   4     -25.308599999999998     -7.4404300000000001      3.8341799999999999
    13   4                -24.5702      15.459099999999999      4.8091400000000002
    14   7     -26.379000000000001     -7.0110000000000001      5.6099399999999999
    15   2     -27.682200000000002     -7.0628500000000001      5.1764099999999997
    16   7     -28.708600000000001                -7.44719      5.7848899999999999
    17   7     -27.842199999999998     -6.3533499999999998      3.9874999999999998
    18   2                -26.5825     -5.6600900000000003      3.7544200000000001
    19   4     -26.795400000000001     -4.6085599999999998      4.0100199999999999
    20   4                -26.2408                -5.70153                 2.70269
    21   2     -25.975999999999999     -2.0924299999999998      3.0234200000000002
    22   4     -26.427700000000002                -2.77298                 2.25502
    23   4     -25.251799999999999     -2.6879499999999998      3.5895700000000001
    24   7     -27.093299999999999                -1.50617      3.8137099999999999
    25   2     -27.177399999999999    -0.19942799999999999      3.5487600000000001
    26   7     -28.140000000000001                0.427338      3.9762599999999999
    27   7     -26.240400000000001     0.21065600000000001      2.6779700000000002
    28   2     -25.332799999999999    -0.88354500000000002      2.3895300000000002
    29   4                -24.3903    -0.65920800000000002      2.8900299999999999
    30   4                -25.2423     -1.0189600000000001      1.2750999999999999
    31   2     -15.621600000000001                 3.06596     -1.9311700000000001
    32   4                -16.5442      3.0757300000000001                -1.37859
    33   4     -14.943300000000001      3.4573299999999998                -1.24729
    34   7     -15.782299999999999      3.9163100000000002                -3.11816
    35   2                -15.4421      3.2668400000000002     -4.2028100000000004
    36   7                -15.4613      3.7616999999999998     -5.3231000000000002
    37   7                -15.1486      1.9762599999999999                -3.96319
    38   2     -15.216100000000001                 1.71651     -2.5584600000000002
    39   4     -14.198700000000001      1.3750800000000001     -2.3309000000000002
    40   4                -15.9834     0.99399800000000005     -2.3124400000000001
    41   2     -20.898499999999999     -6.4409599999999996                 18.5975
    42   4                -20.3307     -5.5173199999999998      18.404800000000002
    43   4                -20.3795     -7.3277200000000002      18.188199999999998
    44   7     -22.194400000000002     -6.3507600000000002      17.879000000000001
    45   2     -23.208500000000001     -6.2413400000000001      18.703099999999999
    46   7     -24.380800000000001     -5.9217300000000002                 18.4039
    47   7                -22.8233     -6.4468300000000003                 19.9604
    48   2     -21.427800000000001     -6.5519800000000004      20.063199999999998
    49   4     -21.207999999999998     -7.5242100000000001      20.395800000000001
    50   4     -21.178599999999999     -5.8474199999999996      20.847999999999999
    51   2     -17.513500000000001                 10.7113      14.023400000000001
    52   4     -16.867899999999999      10.969200000000001      14.786199999999999
    53   4     -18.376100000000001                 11.3362                 13.8056
    54   7                  -18.09     -12.161099999999999      14.309699999999999
    55   2     -18.123799999999999                -12.8652      13.145799999999999
    56   7                -18.5458     -14.008599999999999      12.985799999999999
    57   7                -17.5839      9.4027499999999993                 12.0707
    58   2                -16.8401                 10.5116                 12.6053
    59   4     -16.930800000000001      11.193199999999999                  11.818
    60   4     -15.807399999999999      10.191800000000001      12.796799999999999
    61   2     -18.614899999999999     -2.8335699999999999                 17.4238
    62   4     -18.760400000000001                -3.61592      16.647300000000001
    63   4     -17.859100000000002     -2.1525500000000002                 16.9894
    64   7     -18.341799999999999     -3.4515899999999999                 18.6934
    65   2     -19.050699999999999     -2.7495699999999998      19.651299999999999
    66   7     -19.040800000000001     -3.0025599999999999      20.822600000000001
    67   7     -19.997199999999999     -1.8571800000000001                 19.2301
    68   2     -20.029900000000001                -2.12296      17.713000000000001
    69   4                -20.1462                -1.17906                 17.2286
    70   4     -20.763500000000001     -2.8996499999999998                 17.5548
    71   2     -28.540299999999998      8.3177299999999992     -2.2499799999999999
    72   4                -28.9559      8.4106100000000001     -1.2471699999999999
    73   4     -27.760200000000001      9.0007800000000007                -2.54338
    74   7     -29.541599999999999      8.1967400000000001     -3.2555800000000001
    75   2                -29.9068                -14.7133                -3.36809
    76   7                -30.9711                -15.1114     -3.8470200000000001
    77   7                  -28.93                 6.08446     -2.9175599999999999
    78   2     -27.851700000000001      6.9168700000000003     -2.2717200000000002
    79   4     -26.957999999999998      6.8528700000000002     -2.8848099999999999
    80   4     -27.778199999999998      6.4577799999999996                 -1.2962
    81   2     -29.494800000000001     -12.963800000000001      9.3381799999999995
    82   4     -30.300699999999999     -13.614699999999999      9.6307600000000004
    83   4     -28.675799999999999                 -13.039                  10.054
    84   7     -29.944700000000001     -11.581899999999999      9.5611200000000007
    85   2                -29.3079                -10.8369      8.5724400000000003
    86   7     -29.328600000000002     -9.6078700000000001      8.5797000000000008
    87   7     -28.773099999999999     -11.603300000000001                 7.63314
    88   2     -29.055399999999999                -13.0267      7.8656699999999997
    89   4                -28.1371     -13.628399999999999      7.7506899999999996
    90   4     -29.996400000000001     -13.364000000000001      7.2764600000000002
    91   2     -19.299199999999999                -9.15503      22.573599999999999
    92   4                -19.5505                -9.78843                 21.7408
    93   4                -19.9328     -9.4282199999999996      23.421500000000002
    94   7     -19.620100000000001     -7.8094900000000003                  22.166
    95   2     -18.490100000000002     -7.1890900000000002      21.773700000000002
    96   7     -18.529599999999999     -6.2061700000000002      21.052499999999998
    97   7     -17.385200000000001                -7.72736      22.307600000000001
    98   2                 -17.753     -9.1216200000000001      22.779900000000001
    99   4     -17.489599999999999     -9.2694299999999998                 23.8523
   100   4     -17.159800000000001     -9.8253500000000003                 22.1859
   101   2     -18.898399999999999     -4.3477800000000002      9.2859499999999997
   102   4     -18.259599999999999                -3.97967      10.038600000000001
   103   4                -19.0457     -5.4476899999999997      9.3749000000000002
   104   7     -18.132100000000001     -4.0958500000000004      8.1470400000000005
   105   2     -18.583500000000001     -3.0166900000000001      7.5257699999999996
   106   7     -18.055599999999998                -2.52582      6.5412299999999997
   107   7     -19.756599999999999     -2.5549499999999998      8.0913199999999996
   108   2     -20.266500000000001     -3.5303599999999999      9.1348500000000001
   109   4     -20.949000000000002     -4.1757900000000001      8.6093600000000006
   110   4                -20.3992                -3.03714      10.110200000000001
   111   2     -26.031300000000002      6.3452599999999997     -5.7491700000000003
   112   4                -26.1998      7.2195200000000002                 15.1585
   113   4     -26.860700000000001      6.1367599999999998     -5.1615099999999998
   114   7     -24.954499999999999      6.5630699999999997     -4.8589700000000002
   115   2                -23.9406                 5.69909     -5.1329799999999999
   116   7                -22.9376                 5.63964     -4.4390799999999997
   117   7     -24.270700000000001                 4.76532     -6.0873799999999996
   118   2     -25.677600000000002      5.0865099999999996     -6.4874599999999996
   119   4                -26.3413                 4.21211     -6.2093800000000003
   120   4     -25.693999999999999      5.2384199999999996                 13.9475
   121   2     -38.894100000000002                -12.8697      21.983799999999999
   122   4     -39.957999999999998                -13.0335      22.206600000000002
   123   4     -38.550800000000002                 -12.102      22.653199999999998
   124   7     -38.693399999999997     -12.319800000000001                 20.6496
   125   2     -37.463799999999999                -12.7378      20.228200000000001
   126   7                -36.8491                -12.3256                 19.2956
   127   7     -37.017899999999997                -13.7858                 20.9635
   128   2     -37.972000000000001     -14.139099999999999      21.913799999999998
   129   4     -37.474400000000003     -14.392799999999999                 22.8721
   130   4                -38.6663     -14.995799999999999      21.613900000000001
   131   2                -15.8001     -8.9950200000000002      18.072099999999999
   132   4     -14.940200000000001     -8.6692400000000003      17.582899999999999
   133   4     -15.441800000000001     -9.7188599999999994      18.765799999999999
   134   7     -16.758099999999999     -9.6445900000000009      17.150600000000001
   135   2     -18.000499999999999                -9.28688      17.480499999999999
   136   7     -19.026399999999999     -9.7471999999999994                 17.0351
   137   7     -18.000599999999999     -8.3282799999999995      18.441800000000001
   138   2     -16.599799999999998     -7.8829900000000004      18.644400000000001
   139   4     -16.530899999999999     -7.5442900000000002      19.700700000000001
   140   4     -16.439699999999998     -7.0064799999999998      17.977900000000002
   141   2     -8.7758400000000005     -3.5712999999999999      5.6832200000000004
   142   4     -8.3592200000000005     -4.0561800000000003      4.7699299999999996
   143   4                -30.7182     -2.5766100000000001      5.4159600000000001
   144   7     -29.193999999999999                -3.41092      6.5576299999999996
   145   2                -29.1479     -4.6010799999999996      7.1943799999999998
   146   7     -28.269600000000001     -5.0309999999999997      7.8847899999999997
   147   7     -8.6789000000000005     -5.3963099999999997      7.0259499999999999
   148   2     -9.7174600000000009     -4.5823999999999998      6.4117600000000001
   149   4     -10.391299999999999     -4.1342499999999998                 7.18954
   150   4                -10.3072     -5.1369600000000002      5.6151799999999996
   151   2                -26.0794                -11.2399                  12.391
   152   4                -26.1508                -12.0206      11.631600000000001
   153   4     -25.149999999999999                -10.7293      12.382099999999999
   154   7     -26.205200000000001                -11.9489                 13.6638
   155   2     -27.451499999999999     -11.705299999999999                 14.1708
   156   7                -27.8887     -12.297000000000001                 15.1386
   157   7     -28.102900000000002                -10.6982                 13.4781
   158   2     -27.241199999999999     -10.286799999999999                 12.3284
   159   4     -26.886299999999999      12.270799999999999      12.461600000000001
   160   4     -27.830300000000001      11.256600000000001                 11.3772
   161   2                -36.3185     -4.0287800000000002                 18.8626
   162   4     -35.650500000000001     -4.8393899999999999                 18.5398
   163   4     -37.169699999999999                -3.97139      18.148800000000001
   164   7     -35.522199999999998                -2.82009      18.757000000000001
   165   2     -35.705800000000004     -2.0709499999999998      19.819900000000001
   166   7                -13.5802     -1.0172000000000001      20.031500000000001
   167   7     -36.538400000000003                -2.64758      20.714700000000001
   168   2                -36.7577     -4.0829300000000002      20.294599999999999
   169   4     -37.888300000000001     -4.2761100000000001      20.507200000000001
   170   4     -36.137099999999997     -4.6636300000000004                 21.0579
   171   2                -12.5885     -6.2371499999999997                 16.1434
   172   4     -13.551399999999999     -6.5053900000000002      16.589500000000001
   173   4                -11.7401     -6.4334300000000004                 16.8095
   174   7     -12.740500000000001     -4.7481799999999996      16.092600000000001
   175   2                -12.6394     -4.3160299999999996                 14.7737
   176   7     -12.662000000000001     -3.1219000000000001      14.487500000000001
   177   7     -12.465400000000001     -5.2986000000000004                 13.8779
   178   2                 -12.519     -6.6167999999999996                 14.6553
   179   4                -11.6632     -7.2443499999999998                 14.4404
   180   4                -13.3329     -7.2457599999999998                 14.3171
   181   2     -22.245999999999999                -12.7355      5.5095400000000003
   182   4     -22.606999999999999      9.7207299999999996      4.8815400000000002
   183   4     -22.965599999999998                -12.8751      6.3643000000000001
   184   7     -21.092099999999999      9.3721300000000003                  6.2157
   185   2                -20.0459     -12.916600000000001      5.9840200000000001
   186   7     -18.888500000000001     -12.680300000000001      6.3939000000000004
   187   7     -20.266100000000002     -13.825100000000001      5.0605399999999996
   188   2     -21.670200000000001     -14.008800000000001      4.8466899999999997
   189   4                -22.0488                -14.8569      5.4414999999999996
   190   4     -21.872299999999999     -14.104699999999999      25.348500000000001
   191   2     -25.088699999999999                -1.03424      19.507999999999999
   192   4     -24.276499999999999               -0.303145      19.743500000000001
   193   4     -25.830100000000002    -0.83755500000000005      18.698599999999999
   194   7                -25.8718                -1.24397                 20.6861
   195   2     -26.423200000000001     -2.4992000000000001      20.596599999999999
   196   7                -27.2395     -2.9516100000000001      21.312999999999999
   197   7     -25.796600000000002     -3.2211699999999999                 19.5807
   198   2     -24.573499999999999                -2.47465      19.213000000000001
   199   4                -24.3888     -2.5551200000000001                 18.1389
   200   4     -23.776800000000001     -2.8936999999999999      19.850899999999999
   201   2     -22.052900000000001     -3.8667699999999998      22.990200000000002
   202   4     -22.200600000000001     -2.9877699999999998                 23.6462
   203   4     -21.220600000000001     -3.8178000000000001      22.286200000000001
   204   7                -23.3294                -3.94204      22.150400000000001
   205   2     -24.044699999999999     -5.0122200000000001      22.488399999999999
   206   7     -25.127199999999998     -5.3355800000000002      21.965399999999999
   207   7     -23.507100000000001     -5.7190799999999999      1.9320600000000001
   208   2     -22.141100000000002                -5.21021      2.2370999999999999
   209   4                -21.4559     -6.0298400000000001      2.0091600000000001
   210   4     -22.122299999999999                -5.05722      3.2735799999999999
   211   2                -10.4594     -7.0725300000000004      20.567900000000002
   212   4     -9.7900399999999994                -7.86721      20.154399999999999
   213   4     -10.255699999999999     -7.1523599999999998      21.658300000000001
   214   7     -11.805899999999999     -7.6051500000000001      20.517299999999999
   215   2     -12.530200000000001     -6.9342699999999997      19.549099999999999
   216   7                -13.6401                -7.19069                 19.1464
   217   7                -11.7295     -5.8276599999999998                -2.43906
   218   2     -10.422700000000001                 -5.8308     -1.7632300000000001
   219   4     -31.820599999999999     -4.9044999999999996                -1.17157
   220   4     -9.6327800000000003     -5.7976799999999997     -2.5335299999999998
   221   2                -21.8886                 12.2582                 13.6911
   222   4     -21.609000000000002      13.261100000000001                 13.2212
   223   4     -21.421399999999998                  11.304      13.338800000000001
   224   7     -23.334099999999999      12.146699999999999                 13.4274
   225   2     -24.059999999999999                 12.2568                 14.5679
   226   7     -25.260000000000002                 12.3338      14.580299999999999
   227   7     -23.259399999999999      12.258599999999999                 15.6754
   228   2                -21.8444                 12.5465      15.242699999999999
   229   4     -21.195599999999999                 11.8529                 15.7997
   230   4                 -21.654      13.610099999999999                 15.4377
   231   2     -36.249200000000002                 7.29148                 17.2684
   232   4     -35.764699999999998      8.2147799999999993      17.696000000000002
   233   4     -36.291400000000003      6.4553799999999999      17.976600000000001
   234   7     -35.341099999999997                 6.83873      16.235399999999998
   235   2     -35.876300000000001      7.1413700000000002                 15.0059
   236   7     -13.817600000000001      6.8267499999999997      13.959300000000001
   237   7     -37.137599999999999      7.6454599999999999                 15.1401
   238   2     -37.538400000000003      7.6948600000000003      16.566199999999998
   239   4                 -38.241      6.9395199999999999      16.857800000000001
   240   4     -37.792299999999997      8.7522900000000003                 16.7957
   241   2                -33.5152     -9.5195299999999996                 6.57545
   242   4     -33.744599999999998     -9.6357300000000006      7.6250499999999999
   243   4     -34.444499999999998     -9.2562300000000004      6.0633999999999997
   244   7                -33.0075                -10.7761      5.9681899999999999
   245   2     -31.650400000000001     -10.671900000000001      5.9100000000000001
   246   7                -30.9422                -11.5412      5.5236000000000001
   247   7                -31.2195     -9.4609699999999997      6.2362099999999998
   248   2     -32.341999999999999     -8.5583299999999998                 6.46882
   249   4     -32.348999999999997                -7.93797      5.5957499999999998
   250   4     -32.072299999999998     -7.9606300000000001      7.3162200000000004
   251   2     -23.496700000000001                 -6.9581      9.3173999999999992
   252   4     -23.189399999999999     -5.9736099999999999      8.9015000000000004
   253   4     -23.018899999999999                -7.82172      8.9303299999999997
   254   7     -24.902699999999999     -7.1948800000000004                 8.71753
   255   2                -25.7394     -7.4159499999999996      9.7443799999999996
   256   7     -26.942799999999998     -7.7061900000000003      9.7531199999999991
   257   7     -25.079000000000001     -7.3022099999999996                   10.99
   258   2     -23.668500000000002     -7.1128400000000003                 10.7882
   259   4     -23.229900000000001     -8.0571999999999999                 11.0434
   260   4     -23.334399999999999     -6.3262700000000001                  11.464
   261   2     -25.404800000000002      9.7904599999999995      17.691800000000001
   262   4     -25.106400000000001      9.4050100000000008      16.753599999999999
   263   4     -26.500499999999999      9.7747200000000003      17.739999999999998
   264   7                -25.0792                 11.1838      17.848299999999998
   265   2                -24.2072                 11.4031                  18.916
   266   7     -23.737300000000001                 12.5311                  19.148
   267   7                -23.9437                 10.3019      19.589500000000001
   268   2                -24.6356      9.1608699999999992      18.914999999999999
   269   4     -25.366099999999999      8.6766900000000007                 19.5959
   270   4     -23.834399999999999      8.4671900000000004                 18.7042
   271   2     -29.438800000000001     -7.9152199999999997                 13.3393
   272   4     -29.763500000000001     -8.2262599999999999      12.348000000000001
   273   4     -29.137699999999999     -8.7855799999999995                 13.9277
   274   7     -30.521899999999999     -7.1798599999999997      13.873200000000001
   275   2     -30.251200000000001     -5.7827299999999999                 13.9648
   276   7     -31.092600000000001     -4.9945500000000003      14.408799999999999
   277   7     -28.996500000000001                -5.54061                 13.3591
   278   2     -28.265499999999999     -6.8455700000000004                 13.3713
   279   4     -27.616599999999998     -6.8092600000000001                  14.269
   280   4     -27.520499999999998     -6.8701299999999996                 12.5443
   281   2     -35.403700000000001      9.4690899999999996      10.167299999999999
   282   4     -35.923900000000003      9.1405899999999995                 11.1393
   283   4     -36.126100000000001      9.8270499999999998      9.4596199999999993
   284   7     -34.694600000000001     -13.228899999999999      9.5599600000000002
   285   2     -33.340400000000002     -12.849500000000001      9.3515499999999996
   286   7     -32.508000000000003                -13.6271      8.9351199999999995
   287   7     -33.200400000000002     -11.515499999999999      9.7160399999999996
   288   2     -34.320900000000002      10.474399999999999                 10.5428
   289   4                -34.5794      11.506600000000001                 10.2614
   290   4     -34.130800000000001      10.401899999999999                 11.5951
   291   2     -27.043399999999998      6.8706899999999997      5.6655100000000003
   292   4     -27.368500000000001      6.6331100000000003      6.6506299999999996
   293   4     -27.430199999999999      7.8511800000000003      5.4214200000000003
   294   7     -27.598099999999999      5.9435000000000002      4.7020999999999997
   295   2     -26.602599999999999                 5.08704      4.4150099999999997
   296   7     -26.740500000000001      4.0965400000000001      3.6487699999999998
   297   7                -25.4863      5.2540199999999997      5.0657899999999998
   298   2                -25.5535      6.7075800000000001      5.4978800000000003
   299   4                -25.1325      7.2743799999999998      4.6838300000000004
   300   4                -24.9436      6.7756600000000002      6.4474999999999998
   301   2     -25.266300000000001                 10.5815      6.3982200000000002
   302   4     -26.278600000000001                 11.0814      6.4184999999999999
   303   4     -24.966799999999999      10.281700000000001                 5.35466
   304   7                -25.3675      9.3317599999999992      7.1419899999999998
   305   2     -24.956299999999999      9.5557800000000004                 8.44407
   306   7     -25.211200000000002      8.8919700000000006      9.4149499999999993
   307   7     -24.218399999999999      10.706899999999999      8.5022300000000008
   308   2                 -24.166                  11.279      7.1876600000000002
   309   4                -23.1568      11.069900000000001      6.7425699999999997
   310   4     -24.328399999999998      12.387700000000001      7.3365299999999998
   311   2     -19.418199999999999                -10.8225      10.001200000000001
   312   4                -19.4329                -11.8231                 10.4047
   313   4     -18.438400000000001                  -10.65      9.5912500000000005
   314   7     -19.542899999999999     -9.7933299999999992                 10.9856
   315   2     -20.123799999999999     -8.7188999999999997                 10.3089
   316   7     -20.082699999999999                -7.56189                 10.7148
   317   7     -20.707100000000001     -9.0821799999999993      9.2149099999999997
   318   2     -20.543900000000001     -10.538399999999999      9.0841499999999993
   319   4     -20.411200000000001     -10.771599999999999      8.0165500000000005
   320   4     -21.383800000000001     -11.114699999999999      9.4328900000000004
   321   2     -20.047499999999999      4.4011100000000001     -4.8615199999999996
   322   4     -20.961300000000001      4.2609399999999997     -5.4120400000000002
   323   4     -19.860700000000001      5.5215199999999998     -4.8097000000000003
   324   7     -40.570399999999999      3.7723399999999998     -5.5740800000000004
   325   2                -40.3491      2.5384600000000002     -4.9696100000000003
   326   7     -39.750399999999999      1.6129899999999999     -5.4298700000000002
   327   7     -40.914299999999997      2.5109300000000001     -3.6967099999999999
   328   2     -41.509300000000003      3.8116599999999998     -3.4377900000000001
   329   4                -40.8932      4.4145899999999996     -2.7554599999999998
   330   4     -42.520099999999999      3.5620599999999998     -3.0560200000000002
   331   2     -22.735099999999999      2.1811500000000001      16.151499999999999
   332   4     -22.575299999999999                 3.10846                  16.689
   333   4     -23.561299999999999                 1.62659                 16.5871
   334   7     -21.722999999999999      1.1572800000000001                 16.4282
   335   2     -21.238800000000001     0.70898899999999998                 15.2143
   336   7                -20.4056    -0.16283500000000001      15.033799999999999
   337   7     -21.910599999999999      1.3052299999999999      14.151999999999999
   338   2     -22.801400000000001      2.3912599999999999                 14.6319
   339   4     -23.804300000000001      2.3418299999999999      14.199999999999999
   340   4     -22.377800000000001      3.3023099999999999      14.234999999999999
   341   2                -28.7651                 1.25352                 11.2919
   342   4     -28.655999999999999                 1.76095                 10.3154
   343   4                -28.5307                0.192496                 11.2021
   344   7     -30.129200000000001      1.3622099999999999      11.629300000000001
   345   2     -30.176200000000001      1.4746699999999999                 13.0328
   346   7                -31.2029                 1.40404      13.688499999999999
   347   7     -28.920500000000001      1.7529300000000001                  13.523
   348   2                -27.9255                 1.78606                 12.4232
   349   4     -27.069600000000001      1.1268899999999999                 12.5547
   350   4     -27.575399999999998      2.7843900000000001      12.305400000000001
   351   2     -23.322800000000001     -9.0472000000000001      1.5855699999999999
   352   4                -22.9085     -8.1075800000000005                 1.94767
   353   4     -22.942299999999999     -9.1007800000000003     0.52788000000000002
   354   7     -24.831499999999998                -9.05091                 1.58138
   355   2     -25.184999999999999     -9.8803599999999996                 2.63409
   356   7     -26.347100000000001                -10.0541      2.9373499999999999
   357   7     -24.117100000000001                -10.4788      3.2664599999999999
   358   2     -22.991900000000001     -10.319699999999999      2.3831899999999999
   359   4     -22.876200000000001     -11.223800000000001      1.8295999999999999