(written by ASE)

915 atoms
9 atom types

0.0      21.712770568302616  xlo xhi
0.0      21.712770568302616  ylo yhi
0.0      21.712770568302616  zlo zhi

Atoms # atomic

     1   2      15.340299999999999      5.1091100000000003                 4.49139
     2   2      14.926600000000001      3.7862300000000002      5.1694899999999997
     3   7      16.143599999999999      2.9782899999999999      5.3814099999999998
     4   2      17.126200000000001                  3.6025      4.6229199999999997
     5   7                 18.2104      3.1486499999999999                 4.45777
     6   7      16.692900000000002      4.7771400000000002      4.0659200000000002
     7   4      15.465400000000001      5.9891500000000004      5.1107300000000002
     8   4                 14.7881      5.3030499999999998      3.5515599999999998
     9   4                 14.2448      3.2744499999999999      4.4692299999999996
    10   4                 14.3504                 3.86666      6.1113900000000001
    11   2      2.0208499999999998      12.662699999999999                 25.4847
    12   2      3.3227799999999998      13.297700000000001                 26.1524
    13   7      4.3644499999999997                 12.2644      25.636399999999998
    14   2      3.7197399999999998                  11.093                 25.3703
    15   7      4.2769500000000003      10.023099999999999                 25.1479
    16   7      2.3352400000000002      11.250999999999999                 25.3963
    17   4                 1.94746      13.057499999999999      24.414300000000001
    18   4     0.98946900000000004                  12.805      25.920300000000001
    19   4      3.3639800000000002                 13.3583                 27.2532
    20   4      3.6733799999999999                 14.1472      25.596399999999999
    21   2      3.4420899999999999      3.2654000000000001      16.643899999999999
    22   2      4.8931699999999996      3.0630999999999999      16.139700000000001
    23   7      4.6391400000000003      2.3370799999999998                 14.7859
    24   2                 3.25203      2.4995799999999999      14.507300000000001
    25   7      2.7995999999999999      2.0742500000000001      13.463699999999999
    26   7      2.5843600000000002                 3.14568      15.525700000000001
    27   4                 3.33812      4.3500899999999998      17.040299999999998
    28   4      3.0956399999999999      2.5266899999999999      17.341899999999999
    29   4      5.5478100000000001      2.4390499999999999      16.703900000000001
    30   4      5.3332600000000001      4.0933000000000002      15.842599999999999
    31   2                 12.1968    -0.96401000000000003     -2.1605400000000001
    32   2                 11.3042               -0.868784    -0.91529000000000005
    33   7                 11.1694     0.58917799999999998    -0.69809699999999997
    34   2                 11.5321      1.2329399999999999                -1.84009
    35   7      11.454599999999999      2.4517600000000002     -2.0529099999999998
    36   7      11.905099999999999     0.33227400000000001     -2.8113600000000001
    37   4      11.707700000000001                -1.73567     -2.7708499999999998
    38   4                 13.2902    -0.95518700000000001     -2.0956199999999998
    39   4                 11.8969     -1.2221900000000001   -0.043300699999999998
    40   4                 10.2982     -1.3456300000000001    -0.90181100000000003
    41   2                  8.9779      5.6383400000000004      17.805399999999999
    42   2      8.9017300000000006      7.1186699999999998      17.297599999999999
    43   7      7.4979699999999996      7.4390200000000002      17.210799999999999
    44   2      6.8151299999999999      6.2804399999999996      17.400300000000001
    45   7      5.6159999999999997                  6.1711      17.227499999999999
    46   7      7.5678299999999998      5.2110099999999999                  17.561
    47   4      9.2184500000000007      5.6650499999999999                  18.881
    48   4      9.6044199999999993      5.0262000000000002      17.156400000000001
    49   4      9.4552800000000001                 7.17075      16.303699999999999
    50   4      9.3269900000000003      7.8258900000000002      17.976099999999999
    51   2                 11.4024      2.0789599999999999                 5.41364
    52   2                 10.2584      2.9435699999999998      4.9238999999999997
    53   7      9.6246600000000004      3.2738200000000002      6.1740700000000004
    54   2      9.7126999999999999      2.1767699999999999      6.9480899999999997
    55   7      9.0196500000000004      1.8979999999999999      7.8726000000000003
    56   7                 10.7529      1.4258599999999999      6.5642100000000001
    57   4                 12.2616      2.6362199999999998                 5.82463
    58   4                 11.6462                 1.32437      4.6825799999999997
    59   4      9.5339500000000008                   2.298      4.4321000000000002
    60   4                 10.4795      3.8629799999999999      4.3863899999999996
    61   2     -12.143599999999999     -7.7655500000000002      8.9242000000000008
    62   2                -11.2765                -7.58005      7.7517899999999997
    63   7     -10.107200000000001     -8.3202200000000008      8.0372699999999995
    64   2     -10.150499999999999     -8.7641100000000005      9.2738899999999997
    65   7     -9.1825399999999995     -9.3549600000000002      9.7657000000000007
    66   7     -11.309699999999999     -8.4851500000000009      9.9381400000000006
    67   4     -13.074299999999999     -8.3296399999999995      8.6832399999999996
    68   4     -12.418200000000001     -6.8593799999999998      9.4383300000000006
    69   4     -11.037100000000001     -6.4871600000000003      7.5020899999999999
    70   4                -11.7073     -8.0380299999999991      6.7714999999999996
    71   2      11.193899999999999      25.061299999999999                -10.5542
    72   2      12.616400000000001      24.627199999999998                -10.1648
    73   7      13.304500000000001      24.296500000000002                -11.3809
    74   2      12.534700000000001      24.683199999999999     -12.478199999999999
    75   7                 12.9336                 24.8613                -13.5724
    76   7                 11.2264                 24.8523                 -12.035
    77   4                 10.8764      26.095300000000002                -10.3749
    78   4      10.410600000000001      24.402799999999999                -10.2179
    79   4                 12.6876      23.753399999999999     -9.5554600000000001
    80   4      13.255000000000001      25.382400000000001     -9.7118300000000009
    81   2      7.3821899999999996                 15.4199      6.2748200000000001
    82   2      5.9638099999999996                 15.8184      5.8292999999999999
    83   7                 5.12303      14.775700000000001      6.4562999999999997
    84   2      5.9330999999999996      13.789999999999999      7.0029700000000004
    85   7      5.5553499999999998                 12.8696      7.7125300000000001
    86   7      7.2476099999999999                 14.1233      6.9212699999999998
    87   4      7.7557499999999999      16.136800000000001      7.0664199999999999
    88   4      8.1485699999999994                 15.3561      5.4689100000000002
    89   4      5.7331799999999999                 15.9438      4.7770000000000001
    90   4      5.6433600000000004      16.745100000000001      6.2963800000000001
    91   2     -2.8368799999999998      15.444800000000001      2.6562899999999998
    92   2                 -3.3546      15.282299999999999                  1.2538
    93   7     -2.8654999999999999                  13.919     0.85638800000000004
    94   2     -2.1918299999999999                 13.3558                 1.83545
    95   7     -1.6609100000000001                 12.2034                 1.75292
    96   7     -2.3181500000000002                 14.1365                 2.97342
    97   4     -3.7074199999999999      15.656000000000001      3.3298899999999998
    98   4     -2.0400900000000002      16.212900000000001      2.7970000000000002
    99   4     -2.8553999999999999                 15.9223     0.54303299999999999
   100   4                -4.44902      15.236499999999999                 1.14653
   101   2      3.2775099999999999      9.8644300000000005      6.7766000000000002
   102   2      3.7170200000000002      9.1547800000000006      8.0549999999999997
   103   7      2.6417299999999999      8.2286000000000001                 8.23034
   104   2      1.5974699999999999      8.3980899999999998      7.3307399999999996
   105   7     0.53094200000000003      7.9167399999999999                 7.43384
   106   7      2.0025200000000001      9.3060799999999997      6.3867500000000001
   107   4      4.0243900000000004                 9.71828      5.9771400000000003
   108   4      3.1551900000000002      10.979699999999999      6.8141400000000001
   109   4      3.8646600000000002      9.7937600000000007                 8.98062
   110   4      4.5268499999999996      8.4875000000000007      7.7777399999999997
   111   2     -6.0861799999999997     -2.9159600000000001     -2.9705699999999999
   112   2     -6.1627299999999998     -4.0541299999999998                -1.98333
   113   7     -7.1894200000000001     -4.8394700000000004     -2.6512699999999998
   114   2     -7.8258999999999999     -4.1191300000000002                -3.58297
   115   7     -8.9061800000000009     -4.5369799999999998                -4.06562
   116   7     -7.2218400000000003     -2.9923700000000002     -3.8157800000000002
   117   4     -5.1719799999999996     -2.9153099999999998                -3.66099
   118   4     -6.0783399999999999                -1.96695     -2.4639799999999998
   119   4     -6.5835100000000004     -3.7488700000000001    -0.95058500000000001
   120   4     -5.2229000000000001     -4.5951399999999998     -1.8424799999999999
   121   2      21.942799999999998      17.783000000000001                 4.54331
   122   2      21.733000000000001      16.555499999999999      5.3204799999999999
   123   7      22.678899999999999                 16.6844      6.3690699999999998
   124   2                 23.7164      17.386199999999999      5.8196399999999997
   125   7      24.806999999999999                 17.4618      6.3732300000000004
   126   7      23.475999999999999      17.899899999999999      4.5883000000000003
   127   4                  21.352      18.632100000000001      4.9410499999999997
   128   4      21.636800000000001      17.582100000000001      3.5427599999999999
   129   4      21.891200000000001      15.569000000000001      4.7934900000000003
   130   4      20.785699999999999      16.514399999999998      5.8098400000000003
   131   2      11.853899999999999                 19.3903                 15.8421
   132   2                 11.3323      18.247599999999998                 14.9504
   133   7                 12.4693                 17.8855                  14.182
   134   2      13.382099999999999      18.885200000000001                 14.2326
   135   7                 14.3185      18.881699999999999      13.443199999999999
   136   7                 13.0044                 19.8309      15.055999999999999
   137   4                 12.1469      19.118300000000001                 16.8689
   138   4                 11.1408      20.196100000000001      15.867599999999999
   139   4                 10.5876      18.569500000000001      14.282299999999999
   140   4      10.917899999999999      17.389399999999998      15.486499999999999
   141   2                 24.8931      25.377700000000001      5.2967399999999998
   142   2      24.482099999999999      24.116199999999999      6.0521099999999999
   143   7                 23.0486      24.146799999999999      6.0346599999999997
   144   2      22.679400000000001      25.400600000000001      5.6638200000000003
   145   7                 21.4893      25.616099999999999      5.5271600000000003
   146   7                 23.7424      26.269400000000001      5.5258599999999998
   147   4                 24.9359      25.366099999999999      4.1569099999999999
   148   4                 25.7607      25.886199999999999      5.6893000000000002
   149   4      24.837399999999999      24.084800000000001      7.1087400000000001
   150   4      24.970099999999999      23.266500000000001      5.4806800000000004
   151   2     -5.3393300000000004                 15.6129     -6.5200899999999997
   152   2                 -5.0461                 16.3079     -7.8780000000000001
   153   7     -4.0237100000000003      17.303000000000001     -7.4958200000000001
   154   2     -4.3517400000000004      17.654800000000002     -6.2219199999999999
   155   7                -3.97628                  18.657     -5.7107700000000001
   156   7     -5.1241399999999997      16.716999999999999     -5.5812400000000002
   157   4     -4.5446799999999996                 14.8918     -6.3094999999999999
   158   4     -6.3821099999999999                 15.1838     -6.5004999999999997
   159   4     -5.8926999999999996                  16.779     -8.2651400000000006
   160   4     -4.6786300000000001      15.566000000000001     -8.5444499999999994
   161   2     -1.5281199999999999      14.131500000000001      14.269600000000001
   162   2    -0.53445699999999996                 14.4123      15.363899999999999
   163   7     0.33632000000000001      13.214499999999999      15.384499999999999
   164   2   -0.022480699999999999                 12.4117      14.375299999999999
   165   7     0.44626199999999999                 11.2974      14.147500000000001
   166   7     -1.0815399999999999      12.944699999999999                 13.5959
   167   4                -1.51807                 14.8508                 13.4529
   168   4                -2.51281                 13.8667      14.642899999999999
   169   4               -0.946797                 14.6394      16.364699999999999
   170   4                0.141899      15.167899999999999                 14.9877
   171   2      19.227799999999998      24.595600000000001      21.409500000000001
   172   2                 20.6021                 24.1587      20.857199999999999
   173   7                 21.2653      23.640499999999999                 22.0656
   174   2      20.724499999999999      24.144400000000001      23.146100000000001
   175   7      21.136099999999999      24.069500000000001      24.296199999999999
   176   7      19.469100000000001      24.657399999999999                 22.8687
   177   4      18.504799999999999      23.771799999999999      21.182300000000001
   178   4      19.002500000000001      25.615200000000002      21.144200000000001
   179   4      21.144400000000001                 25.0151                 20.5489
   180   4                 20.4298      23.463000000000001      20.068300000000001
   181   2                   15.84      10.514200000000001                 14.3308
   182   2                 17.1919                 11.1195      14.118600000000001
   183   7      17.000900000000001      12.555899999999999                 13.9184
   184   2      15.729100000000001      12.764200000000001      13.626300000000001
   185   7                 15.2629      13.781599999999999                 13.1015
   186   7                 14.9627      11.672599999999999                 13.8331
   187   4                    15.6      10.388400000000001                 15.4885
   188   4                 15.6187      9.6621100000000002                 13.7067
   189   4      17.744900000000001                 10.6579      13.251099999999999
   190   4      17.852499999999999                 10.9948      15.034000000000001
   191   2      16.073899999999998      24.534500000000001      19.249400000000001
   192   2                 14.6647                 24.0304      18.821400000000001
   193   7                 14.5091      22.837499999999999                 19.6068
   194   2                 15.6511      22.544599999999999                 20.2378
   195   7      15.787800000000001      21.518899999999999      20.912400000000002
   196   7      16.699000000000002      23.408999999999999      19.949999999999999
   197   4                 15.9703      25.386199999999999      20.016100000000002
   198   4                 16.6843      24.726199999999999      18.377500000000001
   199   4                  14.692      23.779599999999999      17.699999999999999
   200   4                 13.7196                 24.5717      19.079799999999999
   201   2                 13.1892      14.194699999999999                 20.4437
   202   2                 13.5876                  13.743                 21.8079
   203   7                 15.0543                 13.5063      21.651199999999999
   204   2                 15.2532                 13.2592                 20.3108
   205   7      16.299099999999999                 12.9937      19.801400000000001
   206   7                 14.0512      13.351699999999999      19.675000000000001
   207   4                 13.3835      15.240399999999999      20.202999999999999
   208   4                 12.1448      13.808199999999999      20.220700000000001
   209   4                 13.1014                 12.7745      21.929600000000001
   210   4                 13.3789                 14.4192      22.656700000000001
   211   2      19.431899999999999      15.404299999999999                 19.1296
   212   2      20.337599999999998      14.152799999999999      19.203800000000001
   213   7                 19.8325                 13.3766      18.098299999999998
   214   2      18.587499999999999      13.790699999999999      17.705100000000002
   215   7      17.843900000000001                 13.1927                 16.9084
   216   7                 18.2744                 14.9293      18.341899999999999
   217   4      19.882999999999999      16.305800000000001      18.700900000000001
   218   4      19.115600000000001                   15.57      20.068999999999999
   219   4                 20.0472      13.475099999999999      20.070799999999998
   220   4      21.431899999999999      14.276199999999999                 19.1252
   221   2     -4.4043700000000001      18.795100000000001      6.4292400000000001
   222   2     -3.4506100000000002      18.090499999999999      5.4983899999999997
   223   7     -2.9693800000000001                 19.2316      4.6984700000000004
   224   2                -3.44171      20.439599999999999      5.1127099999999999
   225   7     -3.0114200000000002      21.531300000000002      4.7774400000000004
   226   7     -4.3666799999999997      20.283100000000001      6.1500700000000004
   227   4     -4.1741999999999999      18.447900000000001      7.4788800000000002
   228   4     -5.4967899999999998                 18.5749      6.2373200000000004
   229   4     -3.9055800000000001      17.349399999999999      4.7926500000000001
   230   4                -2.53356      17.674700000000001                 6.01661
   231   2      11.271699999999999      17.255099999999999                 22.3828
   232   2      9.8196100000000008      17.466100000000001      22.387799999999999
   233   7      9.3078400000000006                 16.1325                 22.7288
   234   2                 10.1723                 15.2248      22.171199999999999
   235   7      9.9634800000000006      14.035299999999999                 22.0807
   236   7      11.325100000000001                 15.8284      21.812999999999999
   237   4      11.757400000000001      17.105399999999999                 23.3505
   238   4      11.921099999999999      17.873799999999999      21.769500000000001
   239   4      9.5014000000000003                 17.7805      21.390699999999999
   240   4      9.3131599999999999      18.158200000000001      23.108499999999999
   241   2      7.4959300000000004                 22.2468      19.137899999999998
   242   2      6.9860300000000004      23.485399999999998                 19.9909
   243   7      5.5242699999999996      23.428999999999998      19.739999999999998
   244   2      5.1764099999999997                 22.1661                 19.3934
   245   7      4.0590400000000004      21.719799999999999      19.503299999999999
   246   7      6.2683299999999997      21.403500000000001      19.032800000000002
   247   4      8.2212899999999998      21.647099999999998      19.634899999999998
   248   4      7.7528699999999997                 22.4313      18.076499999999999
   249   4      7.2630800000000004      24.456299999999999      19.534800000000001
   250   4      7.1062900000000004      23.405899999999999      21.087499999999999
   251   2                 19.0289      20.620899999999999                  1.3267
   252   2      17.914200000000001                 19.5672      1.6470400000000001
   253   7                 17.9604      18.707999999999998     0.47762700000000002
   254   2      18.482600000000001      19.478000000000002    -0.57547700000000002
   255   7      18.480799999999999      19.066800000000001                -1.71482
   256   7      19.082999999999998                 20.5608               -0.122448
   257   4      19.959299999999999                  20.145                 1.80715
   258   4                 18.9224      21.680900000000001      1.5945499999999999
   259   4      16.882400000000001      20.042000000000002      1.6319399999999999
   260   4      18.005199999999999      19.057500000000001                 2.56291
   261   2      2.1442999999999999      11.730700000000001     -2.4262899999999998
   262   2                 1.66889      11.329800000000001     -1.0221499999999999
   263   7      2.3899400000000002      9.9960500000000003    -0.80818599999999996
   264   2      2.5894599999999999      9.5148499999999991     -2.0732300000000001
   265   7      2.7430400000000001      8.2780299999999993     -2.2003599999999999
   266   7      2.6362100000000002      10.453099999999999     -3.0362300000000002
   267   4                 2.86199                 12.5372     -2.4885000000000002
   268   4      1.2633799999999999      11.964499999999999                -3.07152
   269   4     0.62693900000000002                 11.1479    -0.96019200000000005
   270   4      2.0682900000000002                 11.9825                -0.19427
   271   2                 6.53247      12.021100000000001                 10.9222
   272   2      7.8081699999999996                 11.1579      11.129799999999999
   273   7      7.3433099999999998      9.7846200000000003      10.913399999999999
   274   2      5.9404599999999999      9.7830999999999992                 11.1259
   275   7      5.1984899999999996      8.8148099999999996                 10.9841
   276   7      5.4916299999999998                 11.0151                 11.4481
   277   4      6.2142900000000001                 12.1874      9.8382400000000008
   278   4      6.4543900000000001                 12.8575      11.547499999999999
   279   4      8.0577199999999998      11.400600000000001                  12.208
   280   4      8.6052999999999997                 11.3011      10.396800000000001
   281   2      8.1791400000000003      6.6472300000000004      13.145300000000001
   282   2      7.7763200000000001      5.5229600000000003      14.181100000000001
   283   7      7.2338800000000001      4.4460499999999996                 13.2933
   284   2      7.8549499999999997      4.6299599999999996                 12.1121
   285   7      7.7754500000000002                 3.81514                 11.2247
   286   7      8.4922299999999993      5.7905600000000002                 11.8727
   287   4      8.9792500000000004      7.2407899999999996      13.504300000000001
   288   4      7.3666999999999998      7.3649800000000001      12.903499999999999
   289   4      6.9839200000000003      5.7938900000000002      14.828099999999999
   290   4      8.6264500000000002      5.0523100000000003      14.665800000000001
   291   2      16.601099999999999      3.5862500000000002      9.9139599999999994
   292   2      16.514299999999999                 3.29535      8.4358400000000007
   293   7      16.607399999999998      4.6078700000000001                 7.75624
   294   2                 16.5229      5.5868099999999998      8.7527200000000001
   295   7      16.416799999999999      6.7539400000000001      8.4784100000000002
   296   7                 16.6007      5.0440500000000004      9.9571100000000001
   297   4      17.524799999999999      3.2301899999999999                 10.3405
   298   4                  15.824      3.2673299999999998                 10.6279
   299   4      15.600899999999999      2.8241200000000002      8.2142499999999998
   300   4      17.348199999999999      2.6473900000000001      8.1196099999999998
   301   2      20.549499999999998      10.216799999999999      4.4744400000000004
   302   2      20.072800000000001      10.184900000000001      5.8913700000000002
   303   7                 19.4344                 8.91174      5.9942900000000003
   304   2                 19.7515      8.1230899999999995      4.9305399999999997
   305   7      19.502099999999999      6.9336500000000001      4.8878700000000004
   306   7                 20.3996      8.8377800000000004      3.9792900000000002
   307   4                 21.5654      10.421099999999999      4.3234399999999997
   308   4                 19.9087      10.838699999999999      3.9242900000000001
   309   4                 19.4878      11.097099999999999      6.1607399999999997
   310   4      20.842500000000001                 10.1577      6.6307600000000004
   311   2      1.4841299999999999      19.184200000000001      12.519299999999999
   312   2     0.70548299999999997                 20.1128                 13.3545
   313   7    0.098179799999999998      19.294899999999998      14.385199999999999
   314   2     0.72326100000000004      18.063800000000001      14.368600000000001
   315   7     0.47889700000000002      17.176400000000001                 15.1922
   316   7                 1.69218      18.055700000000002                 13.3842
   317   4      2.4294899999999999      19.648299999999999      12.326000000000001
   318   4     0.92882500000000001      18.884499999999999                 11.6143
   319   4   -0.062031999999999997      20.515799999999999      12.706099999999999
   320   4                 1.38113      20.807400000000001      13.879200000000001
   321   2                 11.4373     -8.3497699999999995                 16.7881
   322   2                 12.5107     -7.3420100000000001                 16.2925
   323   7                 13.7363     -8.1027500000000003      16.457799999999999
   324   2                 13.5352                -9.24634                 17.1752
   325   7                 14.3729                -10.0639      17.554500000000001
   326   7                 12.2113     -9.4104299999999999      17.381599999999999
   327   4      10.846299999999999     -8.8331099999999996      16.023700000000002
   328   4                 10.6899     -8.0050399999999993                 17.4802
   329   4                 12.5731     -6.5260699999999998      16.974900000000002
   330   4      12.374599999999999     -7.0409199999999998                 15.2873
   331   2                 15.8544      21.616099999999999      14.371700000000001
   332   2                 15.2387      22.633400000000002                 13.4209
   333   7      15.771100000000001      23.909600000000001                 13.8337
   334   2      16.241499999999998      23.735600000000002      15.140700000000001
   335   7      16.652100000000001      24.705400000000001                 15.8004
   336   7                 16.1081      22.466200000000001                  15.567
   337   4      16.832599999999999                  21.247      14.012600000000001
   338   4                 15.2149      20.738499999999998      14.650399999999999
   339   4      14.101100000000001                  22.794      13.505599999999999
   340   4      15.538500000000001      22.452200000000001                 12.3636
   341   2      18.888999999999999               -0.160524                 17.2288
   342   2      19.469200000000001    -0.20141400000000001      15.744999999999999
   343   7      20.659600000000001     0.64902099999999996      15.917199999999999
   344   2      20.452400000000001      1.5375799999999999      16.882999999999999
   345   7      21.258099999999999      2.3599299999999999      17.040700000000001
   346   7                 19.3065                  1.2261      17.599699999999999
   347   4                 19.4145    -0.83142199999999999      17.888300000000001
   348   4      17.843399999999999               -0.300647      17.272099999999998
   349   4      18.786200000000001     0.22359299999999999      15.078099999999999
   350   4                 19.7349                -1.19598      15.474500000000001
   351   2      7.3932500000000001      10.664199999999999      5.5603899999999999
   352   2      8.2043599999999994      9.5122900000000001      4.9626999999999999
   353   7      9.3914000000000009      9.4991099999999999      5.8154500000000002
   354   2      9.4344999999999999                 10.6554      6.6455399999999996
   355   7                 10.3325                 10.9428      7.4195200000000003
   356   7      8.3697599999999994                 11.4373      6.3841099999999997
   357   4      6.6474399999999996                 10.2804      6.2374000000000001
   358   4      6.9090100000000003      11.308400000000001      4.8042999999999996
   359   4      8.6207399999999996      9.7933400000000006                 3.94814