(written by ASE)

915 atoms
9 atom types

0.0      21.712770568302616  xlo xhi
0.0      21.712770568302616  ylo yhi
0.0      21.712770568302616  zlo zhi

Atoms # atomic

     1   2      14.955500000000001      6.2865399999999996      4.8088199999999999
     2   2                 14.4528      5.1592900000000004      5.7096600000000004
     3   7                 15.5731      4.2305299999999999      5.7968700000000002
     4   2      16.345099999999999      4.4267000000000003      4.7252000000000001
     5   7                 17.0518      3.5577200000000002      4.2130799999999997
     6   7      16.153400000000001      5.6170400000000003      4.1847500000000002
     7   4      15.330500000000001      7.2022199999999996      5.3163299999999998
     8   4      14.232200000000001      6.5361700000000003      4.0203100000000003
     9   4                 13.6053      4.5907400000000003                 5.28756
    10   4      14.172000000000001      5.5916300000000003      6.6298000000000004
    11   2                 4.08927                  12.567      23.714500000000001
    12   2      4.5600699999999996      13.433299999999999      24.934799999999999
    13   7                 3.96244      12.594900000000001      26.009599999999999
    14   2      3.6830099999999999                 11.3438      25.572900000000001
    15   7                   3.387      10.393800000000001      26.282900000000001
    16   7                 3.72024                  11.273                 24.2501
    17   4      4.9040100000000004      12.404400000000001                 22.9786
    18   4      3.2031900000000002                 12.9701                 23.2056
    19   4      4.0854999999999997                 14.4437      24.837599999999998
    20   4      5.6298300000000001                 13.3949      25.029399999999999
    21   2                 2.07057      2.2599399999999998                 15.5631
    22   2                 3.50034      1.8330599999999999                 15.5374
    23   7      3.9190999999999998      2.4914399999999999                 14.2477
    24   2                 2.84409      2.6777899999999999                 13.4558
    25   7      2.8161999999999998      3.1612499999999999                 12.3001
    26   7      1.6511100000000001      2.4198599999999999      14.125500000000001
    27   4                 1.84497      3.1996199999999999      16.023599999999998
    28   4                 1.45258                 1.47133                 15.9001
    29   4      3.6298900000000001     0.74288900000000002      15.317299999999999
    30   4                 4.27006      2.0846300000000002      16.264099999999999
    31   2      11.306900000000001    -0.62798900000000002     -1.5671900000000001
    32   2                 10.3352   -0.092683100000000004     -2.6421800000000002
    33   7      10.716100000000001      1.3393999999999999     -2.7117800000000001
    34   2      11.735099999999999                  1.6266     -1.8171900000000001
    35   7                 12.2273      2.7619199999999999     -1.7531699999999999
    36   7      12.160299999999999     0.51821700000000004     -1.1668400000000001
    37   4      11.825100000000001     -1.5501100000000001                -1.88388
    38   4      10.739100000000001    -0.93237300000000001    -0.65021099999999998
    39   4      9.2965699999999991    -0.17440800000000001                -2.34571
    40   4                 10.5092    -0.62374200000000002     -3.5769500000000001
    41   2      7.0969800000000003      5.7997300000000003      15.199299999999999
    42   2      6.9407399999999999                 7.08962      14.373699999999999
    43   7      5.5339099999999997      7.2398800000000003                 14.1228
    44   2      4.9058900000000003      6.1154999999999999                  14.519
    45   7                 3.74593      5.8492100000000002                 14.5816
    46   7      5.7925899999999997      5.1640199999999998      14.912100000000001
    47   4      7.1600799999999998      5.9610099999999999      16.235700000000001
    48   4      7.8281900000000002                 5.11829      14.763299999999999
    49   4      7.4495899999999997                 7.09781                 13.3714
    50   4                  7.3605      7.9900599999999997      14.940300000000001
    51   2                 10.8833      3.8488600000000002      8.1756700000000002
    52   2      11.148300000000001      4.0382600000000002                 6.72668
    53   7                 10.3103      2.9348000000000001      6.1221100000000002
    54   2      9.5567299999999999      2.2479399999999998                 7.01884
    55   7      8.6929200000000009                 1.39754      6.7670500000000002
    56   7      9.9298999999999999      2.6546699999999999      8.2887599999999999
    57   4                 10.4473      4.6707200000000002      8.6970600000000005
    58   4      11.770200000000001                 3.50705      8.7255099999999999
    59   4      12.230600000000001      3.7607499999999998      6.4570100000000004
    60   4                   10.75      5.0107900000000001      6.2604899999999999
    61   2     -11.996700000000001     -8.2542200000000001                 11.0436
    62   2     -12.896000000000001     -9.1893999999999991      10.244199999999999
    63   7                -12.1091     -9.4400899999999996      9.0506499999999992
    64   2                -10.7821     -9.0530799999999996      9.2927199999999992
    65   7     -9.8138799999999993     -9.3395200000000003      8.6515400000000007
    66   7     -10.715299999999999     -8.2459500000000006                 10.4108
    67   4                -11.8497     -8.5221300000000006      12.069699999999999
    68   4     -12.444100000000001     -7.2214600000000004                 10.8771
    69   4     -13.887499999999999     -8.8485899999999997      9.7974300000000003
    70   4                -13.0075                -10.1952      10.741899999999999
    71   2                 11.3377      27.153300000000002     -8.9731000000000005
    72   2                 12.1922                 26.8308     -7.7503799999999998
    73   7                 13.1349                 25.8689     -8.4653899999999993
    74   2      12.494999999999999                 25.2971     -9.4780800000000003
    75   7      12.944599999999999      24.368400000000001     -10.065799999999999
    76   7                 11.3369      25.963799999999999     -9.7655399999999997
    77   4                 11.7583                 27.9681     -9.5210299999999997
    78   4                 10.3268      27.420500000000001     -8.7333999999999996
    79   4      11.779199999999999      26.260300000000001     -6.9102300000000003
    80   4                 12.7621      27.707899999999999     -7.4556399999999998
    81   2      6.9962799999999996      13.398899999999999      5.8878199999999996
    82   2                 6.00671                 14.4818      6.3819600000000003
    83   7      5.2272400000000001                 13.6944      7.3163799999999997
    84   2                 5.99831      12.636900000000001      7.7804700000000002
    85   7      5.6913299999999998                 11.8551      8.6456599999999995
    86   7      7.0807799999999999                 12.4869      7.0100100000000003
    87   4                 7.98536      13.825799999999999      5.6218500000000002
    88   4      6.6724600000000001                 12.7805      4.9973000000000001
    89   4                 5.33779                 14.8985                 5.67361
    90   4      6.5147599999999999                 15.2544      6.9504599999999996
    91   2               -0.232543                 12.7142                  4.0602
    92   2    -0.98583100000000001                 13.3565      2.9030999999999998
    93   7                -1.13368      12.288600000000001                 1.92293
    94   2    -0.32206800000000002      11.253399999999999      2.2124299999999999
    95   7               -0.113704                  10.225      1.6003700000000001
    96   7     0.27290500000000001      11.479699999999999      3.4308399999999999
    97   4               -0.788802      12.535500000000001      4.9973299999999998
    98   4     0.62440899999999999                 13.3324      4.3722000000000003
    99   4               -0.382658                 14.1442      2.4135800000000001
   100   4                -1.98838                 13.6683      3.1751900000000002
   101   2                 1.96888                  7.5602      6.9040999999999997
   102   2     0.79503699999999999      6.8520000000000003                 6.24071
   103   7    -0.27455600000000002                 7.29101                 7.08094
   104   2    0.064833699999999994      8.4122400000000006                 7.77569
   105   7    -0.81454499999999996      8.9468999999999994      8.4165200000000002
   106   7                 1.36174      8.7391699999999997      7.5791000000000004
   107   4      2.9145699999999999      7.8928799999999999      6.3626100000000001
   108   4      2.3636499999999998      7.0043600000000001      7.7728200000000003
   109   4     0.91094399999999998      5.7722699999999998      6.3222500000000004
   110   4     0.63072099999999998                 6.99749      5.1182499999999997
   111   2     -6.9341699999999999     -1.7533000000000001                  -2.048
   112   2     -5.3941400000000002     -1.9836100000000001     -2.1432099999999998
   113   7     -5.2270799999999999     -3.4703400000000002     -2.0842000000000001
   114   2     -6.4290200000000004                -4.03369     -2.2824399999999998
   115   7     -6.6806999999999999     -5.2238800000000003     -2.5983299999999998
   116   7     -7.4168200000000004     -3.1579000000000002     -2.1266799999999999
   117   4     -7.3413199999999996     -1.2178199999999999     -2.8549000000000002
   118   4     -7.2932100000000002                -1.35009                -1.09266
   119   4     -4.7278700000000002                -1.59666                -1.38687
   120   4     -5.1452200000000001                -1.72329     -3.1477400000000002
   121   2      22.562999999999999      15.792199999999999                 5.01614
   122   2                 23.9375      15.130800000000001      5.4259300000000001
   123   7      24.813199999999998      16.278199999999998      5.3936999999999999
   124   2                 24.1753                 17.4297      4.9842000000000004
   125   7      24.641400000000001      18.508500000000002      4.6725899999999996
   126   7                 22.9512      17.173300000000001      4.6769100000000003
   127   4      22.015599999999999      15.936500000000001      5.9309399999999997
   128   4      21.955500000000001                 15.4823      4.1503699999999997
   129   4      24.292999999999999      14.350199999999999      4.7605399999999998
   130   4                 23.8384                 14.7989      6.4635800000000003
   131   2                  11.975      21.039200000000001                 15.7371
   132   2                 11.7271      19.642900000000001                 16.3751
   133   7      12.582000000000001      18.736899999999999                 15.6996
   134   2      13.235799999999999      19.508099999999999                 14.6685
   135   7                 14.0891      19.021699999999999                 13.9648
   136   7                 12.7713      20.766100000000002      14.573700000000001
   137   4      12.463100000000001                 21.6996      16.434699999999999
   138   4                 11.0974                 21.6004      15.300800000000001
   139   4      10.702400000000001      19.283100000000001      16.280000000000001
   140   4      11.967700000000001      19.660900000000002      17.472899999999999
   141   2      23.694199999999999                 24.9299      5.0574700000000004
   142   2                 22.9026                 24.1282      6.1113200000000001
   143   7      21.559100000000001      24.474699999999999      5.8111499999999996
   144   2      21.469200000000001      25.030200000000001      4.6094900000000001
   145   7                 20.3538      25.207100000000001      4.1196599999999997
   146   7      22.629300000000001      25.491399999999999      4.1707299999999998
   147   4      24.366499999999998      24.343399999999999      4.4561700000000002
   148   4                 24.3567      25.805800000000001      5.2574500000000004
   149   4      23.149799999999999      24.409600000000001      7.1595899999999997
   150   4                 23.0213      23.037800000000001      6.0454400000000001
   151   2     -5.8876999999999997      16.929500000000001                -5.79617
   152   2     -4.8649199999999997      16.281099999999999     -6.7395100000000001
   153   7     -3.6675200000000001      17.070399999999999     -6.3165899999999997
   154   2     -4.1021299999999998      18.261700000000001     -5.8403600000000004
   155   7     -3.4562200000000001      19.177700000000002     -5.4647199999999998
   156   7     -5.4859499999999999      18.307400000000001     -5.8574000000000002
   157   4     -5.8278800000000004                 16.5578                -4.81989
   158   4                -6.89412      16.982500000000002     -6.1810799999999997
   159   4     -4.9427899999999996                 16.6477     -7.7862400000000003
   160   4     -4.7171799999999999      15.204599999999999     -6.6374300000000002
   161   2     -1.4601900000000001                 12.7288                 14.9704
   162   2    -0.15398300000000001                 13.3712      14.460699999999999
   163   7     0.57954899999999998      12.196300000000001      13.964700000000001
   164   2    -0.31446200000000002                 11.2721                 13.6126
   165   7    -0.19386900000000001      10.233000000000001      13.016299999999999
   166   7     -1.5932900000000001      11.707599999999999      13.938700000000001
   167   4     -2.4081899999999998                   13.31                 14.9693
   168   4                -1.26363                 12.2128                 15.8969
   169   4     0.44545099999999999                 13.7704                 15.2562
   170   4    -0.29234700000000002                 14.1433      13.700799999999999
   171   2                 20.4236      25.070599999999999      21.788399999999999
   172   2      21.287299999999998      23.840900000000001                  21.686
   173   7      20.851400000000002      23.023599999999998      22.829999999999998
   174   2      19.631599999999999      23.464500000000001      23.195699999999999
   175   7                 18.9299                 22.9267                 24.0184
   176   7      19.327100000000002      24.583600000000001                 22.5885
   177   4      20.040700000000001      25.393599999999999      20.813700000000001
   178   4      20.830500000000001      25.950299999999999      22.427099999999999
   179   4                 22.3446                 23.9495                 21.6281
   180   4      21.004100000000001                 23.2422      20.805499999999999
   181   2                 15.7096                 10.9671      14.790800000000001
   182   2      17.098299999999998                 11.7065                 15.0563
   183   7      16.822800000000001                  12.994                 14.4915
   184   2                 15.5655                 13.1784                 13.9526
   185   7                 15.1412                 14.1599      13.399699999999999
   186   7      14.885300000000001                 12.0428                 14.1599
   187   4      15.158200000000001                 10.6936                 15.6904
   188   4      15.789899999999999      10.195399999999999                 14.1031
   189   4      17.964600000000001                 11.2654                 14.5412
   190   4      17.403700000000001      11.882199999999999      16.076000000000001
   191   2                   15.51      24.395600000000002      20.160799999999998
   192   2      15.996700000000001                 25.2623      18.979099999999999
   193   7      15.024900000000001      24.834399999999999      17.903199999999998
   194   2                 14.4215      23.623000000000001      18.269400000000001
   195   7      13.556800000000001                 23.0761                 17.6449
   196   7      14.965999999999999                 23.1616      19.490500000000001
   197   4      14.610099999999999      24.834599999999998      20.658000000000001
   198   4                 16.3581                 24.1373      20.970600000000001
   199   4                 17.0169                 24.9892                 18.6921
   200   4                 15.8088      26.367799999999999      19.081800000000001
   201   2                 15.9384                 15.0982                 22.1053
   202   2                 17.3157      15.658200000000001      22.398399999999999
   203   7      18.293700000000001                 14.7546      21.807600000000001
   204   2      17.633299999999998                 13.5517                 21.3855
   205   7                 18.0444      12.497199999999999      20.933499999999999
   206   7      16.309000000000001                 13.7051      21.647099999999998
   207   4                 15.3521                 15.5319      21.250499999999999
   208   4      15.319900000000001      14.988300000000001      22.999500000000001
   209   4      17.354399999999998                 15.6266      23.514800000000001
   210   4      17.576599999999999                 16.6355      21.962399999999999
   211   2      19.022300000000001      16.179500000000001      19.183800000000002
   212   2      20.043900000000001      16.290299999999998      18.080400000000001
   213   7      20.040900000000001                 14.8688      17.558900000000001
   214   2      18.910699999999999      14.276300000000001      18.036300000000001
   215   7      18.587800000000001                   13.19      17.618500000000001
   216   7      18.196000000000002      14.996499999999999      18.906500000000001
   217   4      18.379100000000001      17.061900000000001      19.221599999999999
   218   4      19.508400000000002      16.104500000000002      20.199300000000001
   219   4      21.039400000000001                 16.6267      18.331499999999998
   220   4      19.721900000000002      16.951599999999999      17.200600000000001
   221   2     -3.6164900000000002      17.834800000000001      6.5757700000000003
   222   2     -3.0985100000000001                 17.3064      5.1839000000000004
   223   7                 -2.5682                 18.4985      4.4825100000000004
   224   2     -3.0690499999999998      19.569500000000001      5.0797100000000004
   225   7     -3.1849799999999999                 20.6752      4.5972999999999997
   226   7                -3.52597      19.248100000000001      6.3024100000000001
   227   4                -2.90489      17.469799999999999      7.3010400000000004
   228   4     -4.6295599999999997      17.507200000000001      6.8299200000000004
   229   4     -3.6585200000000002      16.707999999999998      4.4819399999999998
   230   4                -2.18892      16.634799999999998      5.2180999999999997
   231   2                 11.8505      17.273499999999999                 21.2178
   232   2      10.913399999999999      17.195399999999999      22.479500000000002
   233   7      10.536799999999999                 15.7873      22.456099999999999
   234   2                 11.3424      15.100300000000001                 21.5672
   235   7                 11.2118                 13.8903                 21.3748
   236   7                 12.2232      15.906499999999999      21.006499999999999
   237   4      12.803800000000001      17.795000000000002      21.118400000000001
   238   4      11.187099999999999      17.636099999999999      20.389500000000002
   239   4      9.9997100000000003                 17.8108                 22.3581
   240   4                 11.5168      17.291699999999999                 23.4207
   241   2      5.9314799999999996      21.138400000000001                 20.1921
   242   2      6.2638499999999997      22.208300000000001      19.177099999999999
   243   7      5.0057700000000001      22.921700000000001      18.907399999999999
   244   2      4.1079800000000004                 22.4862      19.816800000000001
   245   7      2.9321100000000002      22.847200000000001      19.893799999999999
   246   7      4.6742999999999997      21.668099999999999                 20.7333
   247   4      6.7096499999999999      21.092500000000001                 20.9863
   248   4      5.7523299999999997      20.165700000000001      19.677099999999999
   249   4      6.5424699999999998      21.773499999999999                 18.2271
   250   4      6.9836600000000004                 22.9938                  19.477
   251   2      19.919499999999999                 19.7348      1.3636600000000001
   252   2      20.351900000000001                 18.2883                 1.56718
   253   7      20.577200000000001                 17.7532     0.22287299999999999
   254   2      20.609200000000001                 18.7744    -0.65080199999999999
   255   7      20.799199999999999      18.650200000000002     -1.8822300000000001
   256   7                 20.3339      20.027699999999999   -0.065802600000000003
   257   4      20.420300000000001                 20.3005      2.1596700000000002
   258   4      18.897099999999998      19.869599999999998      1.4391099999999999
   259   4      19.524999999999999      17.785399999999999      2.1366000000000001
   260   4      21.323899999999998      18.219899999999999      2.1226099999999999
   261   2      2.6183999999999998                 13.5441                -3.11903
   262   2      1.2478499999999999      13.873699999999999     -2.4743400000000002
   263   7      1.0513999999999999                 12.6812                -1.55057
   264   2                 1.89473                   11.66     -2.0690900000000001
   265   7                 1.91414      10.522399999999999     -1.6595299999999999
   266   7      2.6642100000000002                 12.1044                -3.06934
   267   4      3.5236999999999998                 13.8025     -2.5187200000000001
   268   4      2.7122199999999999                  13.945     -4.1178299999999997
   269   4     0.48799799999999999                 13.9015                 -3.2161
   270   4      1.3972500000000001                 14.7667                -1.88584
   271   2      5.0192500000000004      8.9990100000000002      8.4304500000000004
   272   2      6.1610899999999997      8.8953100000000003      9.4796899999999997
   273   7      6.1741200000000003      7.5243399999999996      9.8877199999999998
   274   2      5.6294300000000002      6.7936100000000001      8.8617399999999993
   275   7      5.5902599999999998      5.5837700000000003                 8.86022
   276   7      4.9921899999999999                 7.60006                 7.96319
   277   4                  5.2984      9.5993899999999996      7.5565899999999999
   278   4      3.9683799999999998      9.1289800000000003      8.8703599999999998
   279   4      6.0870899999999999      9.6858400000000007                 10.1563
   280   4                 7.08657      9.0809599999999993      9.0371699999999997
   281   2      7.6682800000000002      4.0373599999999996                 11.3994
   282   2      6.2028400000000001                 3.99668      11.759499999999999
   283   7      5.6622199999999996                  2.9009                 10.9391
   284   2      6.7171799999999999      2.2051400000000001                  10.395
   285   7      6.6679199999999996                 1.20126      9.7226300000000005
   286   7      7.9297500000000003      2.7844099999999998      10.734500000000001
   287   4      8.3368800000000007      3.8693599999999999                 12.2529
   288   4      8.1450999999999993      4.8611599999999999                 10.7811
   289   4      5.5436500000000004      4.8536200000000003                 11.5817
   290   4                 6.04725      3.6108699999999998      12.791600000000001
   291   2                  15.616      4.0216399999999997                 10.4688
   292   2                 15.0747      3.5247099999999998      9.1199600000000007
   293   7      14.101800000000001      4.5174700000000003      8.6425099999999997
   294   2                 13.8208      5.3663699999999999      9.7370800000000006
   295   7      13.061400000000001      6.3107699999999998      9.8369499999999999
   296   7                 14.5421      4.9388399999999999                 10.7684
   297   4      16.572099999999999      4.5987299999999998                 10.4247
   298   4      15.678800000000001                 3.16832      11.133699999999999
   299   4                 14.4223                 2.61883      9.1601099999999995
   300   4                 15.8451      3.2788300000000001      8.3714399999999998
   301   2                 20.1355      8.4510699999999996      3.8114599999999998
   302   2                 19.7225      9.3708500000000008      4.8951900000000004
   303   7      19.067900000000002      8.5116899999999998      5.8831800000000003
   304   2      18.823799999999999      7.3049099999999996      5.2822800000000001
   305   7                 18.2943                 6.37873      5.8573700000000004
   306   7      19.154599999999999      7.2699499999999997      3.9722900000000001
   307   4      21.042000000000002      7.8992300000000002      3.9226899999999998
   308   4                  19.991      8.8678399999999993                 2.87161
   309   4      19.099399999999999                 10.1503                  4.4878
   310   4      20.451899999999998      9.8852499999999992      5.5170399999999997
   311   2    -0.50421400000000005      18.539200000000001                 14.8218
   312   2     0.64648000000000005      19.273800000000001      14.010400000000001
   313   7      1.7522599999999999      18.303599999999999                 14.0547
   314   2      1.3821099999999999      17.218399999999999                 14.7691
   315   7      2.1249600000000002      16.286200000000001                 15.0501
   316   7     0.15096399999999999      17.353999999999999                 15.3331
   317   4                -1.34236      18.324200000000001      14.174300000000001
   318   4               -0.797983                 19.0855                 15.7315
   319   4      1.0082899999999999      20.203099999999999      14.505000000000001
   320   4     0.36844399999999999      19.420000000000002                 12.9847
   321   2      12.779500000000001     -7.5588100000000003      18.199100000000001
   322   2                 13.4937                -7.40937      16.861799999999999
   323   7                 14.6572     -8.2739499999999992      17.033100000000001
   324   2                 14.5023     -9.1136199999999992      18.052700000000002
   325   7      15.235799999999999                -10.0482      18.318999999999999
   326   7                 13.3812     -8.7236399999999996      18.809000000000001
   327   4                 11.7036     -7.7432299999999996                   18.16
   328   4      13.038500000000001     -6.7221500000000001      18.809000000000001
   329   4                  13.847     -6.3697900000000001      16.808499999999999
   330   4      12.946899999999999     -7.7164700000000002      16.012499999999999
   331   2                  15.318      21.875699999999998      14.708500000000001
   332   2                 14.7997      23.095700000000001      13.975300000000001
   333   7                 15.7919      24.119399999999999                 14.1191
   334   2      16.805599999999998                  23.677      14.900700000000001
   335   7      17.800000000000001                  24.273      15.158099999999999
   336   7      16.597799999999999      22.353999999999999                 15.1805
   337   4      15.432700000000001      20.996600000000001                 14.1174
   338   4                 14.7704      21.629100000000001                 15.6267
   339   4      13.889900000000001      23.442900000000002      14.467000000000001
   340   4                 14.5968                 22.8705                 12.9178
   341   2      20.327300000000001    -0.58726199999999995      17.851800000000001
   342   2      20.375399999999999    0.074038900000000005      16.421600000000002
   343   7      20.680599999999998      1.4601999999999999      16.830500000000001
   344   2      19.925799999999999      1.6988799999999999                 17.9466
   345   7      19.387699999999999      2.6983899999999998      18.358799999999999
   346   7      19.771899999999999     0.54739400000000005                 18.6068
   347   4                  21.311    -0.69819399999999998                  18.419
   348   4      19.691299999999998                -1.45364                 17.8947
   349   4      19.304300000000001    0.097525399999999998                 15.9915
   350   4      21.094999999999999    -0.34950599999999998                 15.7386
   351   2                 6.72811      9.4781200000000005      4.1706799999999999
   352   2      7.9492799999999999      8.8451799999999992      3.4632800000000001
   353   7      8.9014000000000006      8.6394400000000005      4.6404199999999998
   354   2      8.3094199999999994      9.1374300000000002      5.7924499999999997
   355   7      8.8987300000000005      9.1618899999999996      6.8300799999999997
   356   7      6.9965599999999997      9.6327499999999997                 5.54223
   357   4      5.8054500000000004      8.8233800000000002                 4.09382
   358   4      6.5585500000000003      10.428100000000001      3.6090100000000001
   359   4      8.4511800000000008      9.4807299999999994      2.7354099999999999