(written by ASE)

915 atoms
9 atom types

0.0      21.712770568302616  xlo xhi
0.0      21.712770568302616  ylo yhi
0.0      21.712770568302616  zlo zhi

Atoms # atomic

     1   2      15.035399999999999      4.7484400000000004      4.7643700000000004
     2   2      14.741899999999999                 3.29745      5.0873499999999998
     3   7                 16.0593      2.6736200000000001      4.9683999999999999
     4   2      16.988600000000002      3.5642299999999998      4.4696499999999997
     5   7                 18.1401      3.2113399999999999      4.2053700000000003
     6   7                 16.4816      4.7608600000000001      4.2583000000000002
     7   4                 15.0839      5.3742900000000002      5.6619799999999998
     8   4                 14.4476      5.1747800000000002      3.9327700000000001
     9   4                 14.0761      2.7849900000000001      4.3706800000000001
    10   4                 14.3096      3.0836399999999999      6.0883500000000002
    11   2                 2.64655      12.640599999999999      24.000699999999998
    12   2      3.0429300000000001      13.362399999999999      25.293800000000001
    13   7      4.2614099999999997                 12.6915                 25.7212
    14   2      4.4440999999999997                 11.5503                 24.9193
    15   7      5.3769499999999999                 10.8081      25.040199999999999
    16   7      3.4651900000000002                  11.387      23.966999999999999
    17   4                 3.05674                  13.253                 23.1798
    18   4                 1.59473      12.452500000000001      23.799299999999999
    19   4                 2.32361                 13.3034                 26.1142
    20   4      3.3709600000000002                 14.3329                 25.0001
    21   2      4.0092800000000004      4.0091700000000001      16.432099999999998
    22   2      4.8201700000000001      2.7460499999999999      16.403600000000001
    23   7      4.1641199999999996      1.9739800000000001      15.307700000000001
    24   2      3.7945199999999999                 2.89994      14.389799999999999
    25   7      3.4561899999999999      2.5873300000000001      13.255699999999999
    26   7      3.8805000000000001                 4.18771      14.859500000000001
    27   4      4.5440899999999997      4.9434399999999998                 16.8032
    28   4                 3.05078      3.8860199999999998      16.826799999999999
    29   4      4.7895899999999996      2.1941799999999998                 17.3139
    30   4      5.8060099999999997      2.9828700000000001                 16.0091
    31   2      11.213100000000001    -0.32714399999999999     -2.3637000000000001
    32   2      9.8285099999999996                0.132241     -1.8646100000000001
    33   7      9.7669499999999996      1.5503100000000001     -2.1665199999999998
    34   2                 11.0557      1.9675400000000001     -2.3416000000000001
    35   7      11.318300000000001      3.1542300000000001     -2.4860099999999998
    36   7                 11.9594     0.92296599999999995     -2.3750499999999999
    37   4      11.193099999999999    -0.73694599999999999                -3.39635
    38   4                 11.7803    -0.86118799999999995                -1.59796
    39   4      9.6034799999999994   -0.073919100000000001    -0.82033400000000001
    40   4      9.0039800000000003               -0.313446     -2.4691100000000001
    41   2      8.4242899999999992      4.3429399999999996      18.700800000000001
    42   2      9.4298000000000002      5.4083100000000002      18.168099999999999
    43   7      8.4925300000000004      6.2245299999999997      17.386500000000002
    44   2      7.2019299999999999      6.0048599999999999      17.730699999999999
    45   7      6.2948300000000001      6.6516299999999999      17.276700000000002
    46   7      7.1030800000000003      4.8775000000000004                 18.4148
    47   4      8.4702500000000001      4.1232899999999999      19.779299999999999
    48   4      8.6500000000000004      3.4351799999999999      18.134599999999999
    49   4      10.267300000000001      5.0065400000000002      17.566400000000002
    50   4      9.9007299999999994      6.0224900000000003      18.928599999999999
    51   2                 11.0031      2.1574800000000001      5.4292800000000003
    52   2                  10.186      3.4236900000000001      5.4738100000000003
    53   7      9.4932999999999996      3.3395100000000002      6.7086100000000002
    54   2      9.5996600000000001      2.0785800000000001      7.2305700000000002
    55   7                 9.03383                 1.74614      8.2870699999999999
    56   7      10.416499999999999                 1.38812      6.4996799999999997
    57   4                 12.0688                 2.30646      5.6948600000000003
    58   4                 10.8391      1.5845800000000001      4.5199199999999999
    59   4      9.4978499999999997                 3.53735      4.5469299999999997
    60   4                 10.9017                 4.33371                 5.57707
    61   2                 -13.294     -8.6227999999999998                 9.06677
    62   2                -12.4895     -8.6430100000000003      7.7421199999999999
    63   7     -11.202400000000001     -9.3016400000000008      8.1602200000000007
    64   2     -11.229799999999999     -9.4450299999999991      9.5217500000000008
    65   7     -10.320499999999999     -9.9357500000000005                 10.2157
    66   7                -12.3545     -8.9735200000000006      10.025600000000001
    67   4     -14.126200000000001     -9.4436800000000005      9.0951799999999992
    68   4                -13.7462     -7.6698700000000004      9.3342899999999993
    69   4     -12.281599999999999                -7.70716      7.4702400000000004
    70   4     -12.778499999999999     -9.1433499999999999                 6.84361
    71   2                 11.0655      25.682700000000001                -10.1678
    72   2                 11.9597      24.459099999999999     -9.9755699999999994
    73   7                 12.0435      23.943100000000001                -11.4039
    74   2                 11.8904                 25.0367                -12.1934
    75   7                 12.3314                 25.1051                -13.3261
    76   7                 11.2052      26.015799999999999     -11.605499999999999
    77   4      11.445499999999999      26.598199999999999                -9.61374
    78   4      9.9908300000000008      25.676200000000001     -9.9345499999999998
    79   4                 11.6616      23.635400000000001     -9.3698999999999995
    80   4                 12.9909      24.685500000000001     -9.6966699999999992
    81   2      6.3543000000000003      13.980600000000001                 5.87941
    82   2      5.2869099999999998      14.990500000000001      6.2172299999999998
    83   7                  4.3144      14.229900000000001      6.9203599999999996
    84   2      4.9219999999999997                 13.0999      7.4571800000000001
    85   7      4.4357800000000003                 12.4208      8.3299500000000002
    86   7      6.2288600000000001                  13.028      7.0682299999999998
    87   4      7.3867500000000001                 14.3567      5.8666799999999997
    88   4      6.2141000000000002      13.417899999999999      4.9930399999999997
    89   4                 4.88842      15.431900000000001      5.2913500000000004
    90   4                 5.63286                 15.7875      6.8254400000000004
    91   2     -2.2845599999999999      15.300599999999999      2.6783100000000002
    92   2     -3.3140399999999999      14.833399999999999      1.6359600000000001
    93   7     -2.8754499999999998      13.525600000000001      1.1873899999999999
    94   2     -1.5497300000000001                  13.532      1.4758599999999999
    95   7    -0.78338600000000003                 12.6913      1.0388599999999999
    96   7                -1.10876                 14.4917      2.2836500000000002
    97   4     -2.4871300000000001                 15.0413      3.7419600000000002
    98   4     -1.9594199999999999                 16.3689                 2.61355
    99   4                -3.38246                 15.5617     0.82181499999999996
   100   4     -4.3308499999999999                 14.6816      2.0420199999999999
   101   2      2.0942099999999999                 10.4452      6.2034700000000003
   102   2      2.6219800000000002      9.8271899999999999      7.5235500000000002
   103   7      1.7478400000000001      8.5868300000000009      7.6783299999999999
   104   2     0.72391099999999997      8.6640599999999992      6.7668499999999998
   105   7    -0.33991700000000002      8.0866699999999998      6.8296200000000002
   106   7     0.98292199999999996      9.5369100000000007      5.7755999999999998
   107   4      2.7442799999999998      10.514900000000001      5.2991999999999999
   108   4      1.7218800000000001                 11.4613      6.3493599999999999
   109   4      2.3400099999999999      10.465400000000001      8.3336900000000007
   110   4      3.6376400000000002      9.4726999999999997      7.5074399999999999
   111   2     -5.2275700000000001     -2.4641299999999999     -2.4588700000000001
   112   2     -5.0737300000000003     -3.8843000000000001     -1.9528799999999999
   113   7     -5.8052299999999999     -4.7031299999999998     -2.8601000000000001
   114   2     -6.7758599999999998     -3.8863099999999999     -3.4025099999999999
   115   7     -7.7650899999999998     -4.2627499999999996     -3.9670100000000001
   116   7     -6.5855399999999999     -2.5804100000000001                -3.05681
   117   4     -4.5471300000000001     -2.1361300000000001                -3.29331
   118   4     -5.1879499999999998                -1.79661     -1.6408199999999999
   119   4     -5.4518000000000004     -3.9047700000000001    -0.87074700000000005
   120   4     -4.0401300000000004     -4.1722099999999998     -2.0756399999999999
   121   2      21.825399999999998      18.241099999999999      4.6289199999999999
   122   2                 22.1433      16.787400000000002      4.5595499999999998
   123   7      23.167899999999999      16.620200000000001      5.5699399999999999
   124   2      23.523299999999999      17.895800000000001      6.0281799999999999
   125   7      24.438199999999998      18.106200000000001      6.7408400000000004
   126   7                 22.7666      18.854800000000001      5.4230099999999997
   127   4      20.805800000000001      18.417899999999999      5.0163000000000002
   128   4      21.866700000000002                  18.881                 3.71848
   129   4      22.571200000000001      16.639700000000001                 3.59457
   130   4      21.308700000000002                 16.1113      4.6675500000000003
   131   2      12.311299999999999      19.732399999999998                 15.8726
   132   2      11.846399999999999      18.286799999999999      15.411899999999999
   133   7                 12.5693      18.108799999999999                 14.0983
   134   2                 13.2905                 19.2057      13.852600000000001
   135   7                 13.9033                 19.4299      12.791700000000001
   136   7      13.211399999999999                 20.1328                 14.8337
   137   4      12.810499999999999      19.705500000000001                 16.8369
   138   4                  11.435                 20.4192      15.905200000000001
   139   4      10.781499999999999      18.228100000000001                 15.2546
   140   4      12.088900000000001      17.444299999999998      16.073699999999999
   141   2      24.869199999999999      26.206099999999999      5.7106399999999997
   142   2                 24.2195      25.879999999999999      7.0118099999999997
   143   7                 22.7118      26.045999999999999                 6.73834
   144   2      22.587700000000002      26.091100000000001      5.3676199999999996
   145   7      21.539899999999999      26.024899999999999      4.7423299999999999
   146   7      23.784800000000001      26.254999999999999      4.7895099999999999
   147   4                  25.561      25.429400000000001      5.3115600000000001
   148   4                 25.3629      27.147300000000001      5.7612399999999999
   149   4      24.473800000000001                 26.4191      7.9241000000000001
   150   4                 24.3934      24.872399999999999      7.3839300000000003
   151   2     -5.4142900000000003      17.284300000000002     -7.9694200000000004
   152   2     -4.0664899999999999                 16.5975     -7.6239800000000004
   153   7     -3.5126300000000001      17.583200000000001     -6.6564199999999998
   154   2                -4.41059      18.543700000000001     -6.3554899999999996
   155   7                 -4.1898      19.520399999999999     -5.6425599999999996
   156   7     -5.6211599999999997                 18.3111     -6.9720000000000004
   157   4     -6.2781900000000004      16.643699999999999     -7.8381100000000004
   158   4     -5.3276300000000001      17.690100000000001     -8.9397599999999997
   159   4     -3.3696700000000002      16.463200000000001     -8.5348000000000006
   160   4     -4.2168799999999997                 15.6172     -7.0936300000000001
   161   2                 -1.2504      14.959199999999999      15.122999999999999
   162   2     0.25636300000000001      14.799799999999999      14.915900000000001
   163   7     0.40770200000000001                 13.3611                 14.8423
   164   2    -0.74107699999999999      12.857900000000001                 14.3545
   165   7    -0.88558400000000004                 11.6783                  13.987
   166   7                -1.77261                 13.7728                 14.3622
   167   4     -1.4745999999999999                 15.8285      14.481400000000001
   168   4                -1.62364      14.903600000000001                 16.1418
   169   4     0.90467299999999995                 15.1006      15.749499999999999
   170   4                0.587476      15.081200000000001      13.932399999999999
   171   2      19.729500000000002      24.704699999999999                 21.2468
   172   2                 20.5731      23.372199999999999      21.030100000000001
   173   7                 20.9391                 22.9712                 22.3505
   174   2                 20.6587                 23.9009      23.255700000000001
   175   7                 20.7193      23.755800000000001      24.432400000000001
   176   7      20.110900000000001      25.026499999999999                 22.6235
   177   4      18.668700000000001      24.393799999999999      21.202400000000001
   178   4      20.220199999999998      25.421299999999999      20.605399999999999
   179   4      21.525500000000001                 23.5943      20.432600000000001
   180   4      19.962399999999999      22.595800000000001      20.530999999999999
   181   2                 16.0335                 10.9184      14.268700000000001
   182   2      17.140699999999999      11.934200000000001                 14.6539
   183   7      16.790700000000001      13.087899999999999      13.918200000000001
   184   2                  15.459                 13.0527      13.754799999999999
   185   7                 14.8085      14.012499999999999                 13.3621
   186   7      14.928100000000001                  11.792                 13.9809
   187   4      15.819800000000001      10.248200000000001                  15.132
   188   4                 16.2042                 10.3185      13.411300000000001
   189   4                 18.1416                 11.6158      14.445499999999999
   190   4      17.168700000000001      12.198600000000001      15.748900000000001
   191   2                 16.0365      24.618099999999998                  18.381
   192   2                 15.0715      23.437100000000001      18.260899999999999
   193   7                 15.7172      22.360700000000001      19.076499999999999
   194   2      16.926500000000001                 22.7776                 19.5806
   195   7      17.707699999999999                 22.1831                 20.2639
   196   7                 17.1904                  24.081      19.109999999999999
   197   4                 15.5685      25.337299999999999      19.029699999999998
   198   4      16.508600000000001                 24.9406      17.459599999999998
   199   4                 14.9018                 23.1128      17.217700000000001
   200   4      14.053800000000001      23.572399999999998                 18.7713
   201   2                 13.3185      14.951599999999999                 20.3691
   202   2                 14.2515      15.546099999999999                 21.3949
   203   7      14.882099999999999                 14.3927      22.015999999999998
   204   2      14.852499999999999                 13.4114      21.098099999999999
   205   7                 15.5947                   12.43      21.189599999999999
   206   7                 14.0183      13.714600000000001      20.071899999999999
   207   4      13.352399999999999      15.621499999999999      19.471699999999998
   208   4                 12.3169                 14.6067      20.700700000000001
   209   4                 13.8095      16.255600000000001      22.081499999999998
   210   4                 15.0837      16.027200000000001                 20.8781
   211   2      19.270099999999999      15.228899999999999                 19.8111
   212   2                 20.3506      14.419700000000001      19.149000000000001
   213   7      19.612200000000001                 13.8217                  18.084
   214   2                 18.2729      13.793699999999999                 18.4224
   215   7      17.467300000000002                  13.137                 17.8187
   216   7      18.011099999999999      14.492800000000001                 19.5183
   217   4      19.246200000000002      16.222999999999999      19.309699999999999
   218   4                 19.3386                 15.5898      20.889399999999998
   219   4      20.827500000000001                   13.59      19.712900000000001
   220   4      21.105499999999999                 15.0855                 18.7239
   221   2                    -5.5      19.928799999999999      6.2551800000000002
   222   2     -4.4275900000000004                 18.8277      6.1081799999999999
   223   7     -3.4647700000000001      19.395299999999999      5.1909000000000001
   224   2                -3.69957      20.703399999999998                   5.093
   225   7     -2.9219499999999998      21.593499999999999                 4.75223
   226   7                -4.88354      21.127199999999998      5.6880600000000001
   227   4     -5.7611699999999999      20.046399999999998      7.3170999999999999
   228   4     -6.3570000000000002                  19.738      5.5738500000000002
   229   4     -4.8854699999999998      18.057200000000002      5.5487200000000003
   230   4     -3.8529599999999999      18.462700000000002      6.9431700000000003
   231   2      10.696199999999999      18.469100000000001                 22.2377
   232   2      9.2600499999999997      17.984400000000001      22.364100000000001
   233   7      9.4816000000000003      16.533999999999999      22.571100000000001
   234   2      10.706799999999999      16.218299999999999      22.083100000000002
   235   7                 11.0839      15.051399999999999                 22.0412
   236   7                 11.4565      17.283899999999999                 21.8538
   237   4      11.066700000000001      18.879799999999999                   23.16
   238   4                 10.9041                 19.2334                 21.4377
   239   4      8.5403300000000009      18.184699999999999      21.537400000000002
   240   4      8.7518799999999999      18.246700000000001                 23.3063
   241   2      6.2820099999999996                 21.7258      19.994499999999999
   242   2      6.6398799999999998                 23.1252                 19.4374
   243   7      5.2942099999999996                  23.843      19.656600000000001
   244   2      4.5531499999999996      23.107199999999999      20.550599999999999
   245   7      3.4726300000000001      23.456900000000001      20.976199999999999
   246   7      5.2167300000000001      21.956600000000002                 20.9574
   247   4      7.1153500000000003      21.255299999999998      20.559200000000001
   248   4                 5.81515                 21.1068      19.216899999999999
   249   4      6.8571099999999996      23.177700000000002      18.336300000000001
   250   4      7.3289600000000004                  23.663      20.076699999999999
   251   2                 20.0519                  19.413      1.6727799999999999
   252   2      18.522099999999998      19.258900000000001                 1.58535
   253   7      18.460799999999999      18.734200000000001     0.17857799999999999
   254   2      19.414999999999999      19.297799999999999    -0.53281000000000001
   255   7                 19.5472      19.313099999999999                -1.73339
   256   7      20.351700000000001      19.897400000000001     0.29907400000000001
   257   4      20.582000000000001                 18.5014                 1.91161
   258   4                 20.3918      20.166799999999999      2.3458999999999999
   259   4      18.096800000000002      20.224799999999998                 1.61416
   260   4      18.063199999999998                 18.5654      2.2216200000000002
   261   2                 1.60572      12.372299999999999     -2.5978500000000002
   262   2                 1.24176                 12.1167     -1.1371899999999999
   263   7      1.7594799999999999                 10.7392    -0.94060299999999997
   264   2      1.7232400000000001      10.118600000000001     -2.1027100000000001
   265   7                 1.90581      8.9262599999999992                -2.35433
   266   7                 1.51854      10.992599999999999     -3.1397599999999999
   267   4      2.6711800000000001      12.498799999999999                -2.73237
   268   4      1.0426299999999999                 12.9229     -3.3649399999999998
   269   4     0.17730299999999999      11.933299999999999     -1.0230900000000001
   270   4      1.6191800000000001      12.893000000000001    -0.38573600000000002
   271   2      6.2087700000000003      10.678599999999999      10.371600000000001
   272   2      7.5128300000000001      10.138500000000001      10.914099999999999
   273   7      7.0291100000000002      8.8026999999999997      11.624499999999999
   274   2      5.7130000000000001      9.0543300000000002      11.853199999999999
   275   7      5.0668800000000003      8.2746499999999994      12.534800000000001
   276   7                 5.30131                 10.2799                 11.4192
   277   4                 5.81914                 10.1983      9.4660399999999996
   278   4                 6.23759      11.805999999999999                 10.2342
   279   4      7.8883700000000001                 10.6861      11.723100000000001
   280   4      8.2201199999999996      9.7659300000000009                   10.18
   281   2      8.3049900000000001      5.9047499999999999                 13.4907
   282   2      6.8167099999999996      5.8573000000000004      13.879799999999999
   283   7      6.4173499999999999      4.4478200000000001                 13.4536
   284   2      7.2049099999999999      4.1276999999999999      12.382400000000001
   285   7      6.9608400000000001      3.2395700000000001                 11.5518
   286   7      8.2812699999999992      5.0583400000000003                 12.2544
   287   4      8.9041099999999993      5.3906900000000002                 14.2704
   288   4      8.7931600000000003      6.8464999999999998                 13.2248
   289   4      6.1799600000000003                 6.55748                 13.3476
   290   4                 6.55931      5.8887900000000002                 14.9473
   291   2      16.699000000000002                 3.16906      9.6395599999999995
   292   2                 16.2605                 2.88618      8.2248999999999999
   293   7      16.396599999999999      4.1965700000000004      7.6272399999999996
   294   2      16.476900000000001      5.1618300000000001      8.5325299999999995
   295   7                 16.4665                 6.34816      8.3887199999999993
   296   7                 16.5501      4.5996899999999998      9.7970900000000007
   297   4      17.709199999999999      2.8203499999999999      9.9329999999999998
   298   4      16.052800000000001      2.7224400000000002      10.393700000000001
   299   4                  15.195      2.6026400000000001      8.2817900000000009
   300   4      16.797499999999999      2.1970299999999998      7.4917199999999999
   301   2      19.814900000000002      10.116400000000001      3.9933399999999999
   302   2      19.023099999999999                 10.1096      5.2804099999999998
   303   7      18.159800000000001      8.8620999999999999      5.0882899999999998
   304   2      18.922599999999999      8.0459899999999998      4.3222899999999997
   305   7      18.763500000000001      6.8631900000000003      4.2361599999999999
   306   7                 20.0091      8.6880900000000008      3.7343000000000002
   307   4      20.903600000000001                 10.5014                 4.05274
   308   4      19.264800000000001                 10.7113      3.1964999999999999
   309   4      18.216699999999999      10.823499999999999      5.3237300000000003
   310   4      19.657499999999999      9.9287700000000001      6.1566400000000003
   311   2     0.30468400000000001      18.561900000000001                  12.795
   312   2     0.31526500000000002                 19.8568                  13.612
   313   7     0.96987000000000001      19.466699999999999                 14.8566
   314   2     0.58412299999999995      18.182099999999998      15.061400000000001
   315   7     0.62657200000000002      17.600300000000001      16.111699999999999
   316   7    0.085896799999999995      17.640799999999999      13.861800000000001
   317   4      1.2475799999999999                 18.3642                 12.2796
   318   4    -0.60664799999999997      18.579899999999999      12.136100000000001
   319   4    -0.71103400000000005                 20.1995      13.828099999999999
   320   4      1.0168600000000001                 20.5717      13.153600000000001
   321   2                 12.7049     -7.7068300000000001      16.178799999999999
   322   2                 14.1022     -7.2152700000000003      16.453499999999998
   323   7                 14.8634     -8.4855800000000006                  16.628
   324   2      13.920500000000001     -9.3400400000000001      17.102399999999999
   325   7                 14.2872     -10.378299999999999      17.657299999999999
   326   7      12.695499999999999     -9.0156200000000002                 16.8293
   327   4      12.450100000000001     -7.8063399999999996      15.122299999999999
   328   4      11.929500000000001     -7.0131100000000002                  16.581
   329   4      14.297800000000001     -6.6687399999999997      17.411799999999999
   330   4      14.571899999999999     -6.6131200000000003      15.592599999999999
   331   2                 15.9078      21.386099999999999                 14.3164
   332   2      14.939299999999999      22.072399999999998                 13.4377
   333   7                 15.5665      23.389700000000001                 13.1592
   334   2      16.748999999999999      23.459800000000001                 13.8759
   335   7      17.279399999999999      24.496300000000002                  14.167
   336   7      17.063800000000001                 22.2316                 14.3568
   337   4      16.213999999999999      20.397500000000001      13.946400000000001
   338   4                 15.6463                 21.2422                 15.3772
   339   4      13.980700000000001      22.197800000000001                 13.9817
   340   4      14.842599999999999      21.673100000000002                 12.3973
   341   2                 19.9282    -0.38495099999999999      17.669499999999999
   342   2      20.916399999999999     -1.0610299999999999      16.736699999999999
   343   7      21.880600000000001    0.081194199999999994      16.415700000000001
   344   2      21.436800000000002                 1.20316                 16.9818
   345   7      21.894600000000001      2.3651599999999999      17.000699999999998
   346   7                 20.3125                0.968499                 17.6159
   347   4                 20.0595    -0.77834400000000004                 18.7121
   348   4      18.940100000000001    -0.59077100000000005      17.308299999999999
   349   4      20.464600000000001                 -1.2864                 15.8141
   350   4                 21.3826                -1.95682      17.204599999999999
   351   2      6.6463799999999997                 10.1814      6.2247899999999996
   352   2      7.3686400000000001      9.3572299999999995      5.1121400000000001
   353   7      8.6838700000000006      9.0090699999999995      5.6869500000000004
   354   2      8.7971500000000002      9.5898699999999995                 6.89872
   355   7                 9.73752      9.4048400000000001      7.6544299999999996
   356   7      7.7586000000000004                 10.4941      7.1227200000000002
   357   4      5.8866399999999999      9.6713100000000001      6.8470300000000002
   358   4      6.2381900000000003      11.126200000000001      5.8294199999999998
   359   4      7.4546099999999997      10.051299999999999      4.2069400000000003