(written by ASE)

915 atoms
9 atom types

0.0      21.712770568302616  xlo xhi
0.0      21.712770568302616  ylo yhi
0.0      21.712770568302616  zlo zhi

Atoms # atomic

     1   2                 15.1625      5.2534400000000003      4.7139199999999999
     2   2      14.675700000000001      3.9201100000000002      5.2900200000000002
     3   7                 15.8207                 3.02122      5.2350300000000001
     4   2                 16.7865      3.6027800000000001      4.5656600000000003
     5   7                 17.9025      3.1369099999999999      4.3614899999999999
     6   7                 16.3873      4.8123100000000001      4.0336100000000004
     7   4                 15.3233      6.0628099999999998      5.4350899999999998
     8   4      14.502000000000001      5.6101400000000003      3.9813000000000001
     9   4      13.937200000000001      3.4307099999999999      4.6463299999999998
    10   4      14.438000000000001                 3.95967      6.3457699999999999
    11   2      2.0700099999999999                 12.8331      25.229800000000001
    12   2      3.3879000000000001                 13.3147      26.038900000000002
    13   7      4.1244699999999996      12.086499999999999      25.915600000000001
    14   2      3.5742799999999999                 11.1244                 25.1463
    15   7      4.0742700000000003      10.042199999999999      24.893699999999999
    16   7      2.3399399999999999      11.472200000000001      24.796299999999999
    17   4      1.8987499999999999      13.405099999999999      24.301400000000001
    18   4      1.1527400000000001                 12.6937                 25.9023
    19   4      3.2176800000000001                  13.443                 27.1084
    20   4      3.8802699999999999                 14.2287      25.651499999999999
    21   2      3.5465499999999999      3.4919799999999999      16.692499999999999
    22   2                 4.95709      2.9963299999999999      16.403300000000002
    23   7      4.9013400000000003      2.7940800000000001      14.936999999999999
    24   2      3.6420300000000001      2.5756600000000001      14.639799999999999
    25   7      3.3069299999999999      2.0944799999999999                 13.5998
    26   7      2.8181799999999999      2.9444699999999999                 15.6945
    27   4                 3.47505      4.5441700000000003      16.659600000000001
    28   4      3.1320899999999998      3.0960200000000002      17.689499999999999
    29   4                 5.20967      2.0068999999999999      16.895399999999999
    30   4      5.7884200000000003      3.6414599999999999      16.542200000000001
    31   2                 12.0321    -0.89822000000000002     -1.6906000000000001
    32   2                 10.8797    -0.67676400000000003    -0.72098700000000004
    33   7                 10.6747     0.75384200000000001    -0.68395600000000001
    34   2                 11.3926                 1.36084                -1.70123
    35   7      11.426500000000001      2.5473699999999999     -1.9008499999999999
    36   7      12.007899999999999     0.32790999999999998                 -2.4701
    37   4      11.996600000000001     -1.6863300000000001     -2.4341300000000001
    38   4      12.957700000000001     -1.1497999999999999     -1.2275499999999999
    39   4                  10.972                -1.02149                0.342584
    40   4      9.9275400000000005                -1.06219     -1.1449800000000001
    41   2      9.1140100000000004      5.6644399999999999      17.959299999999999
    42   2      8.9297199999999997      7.1212400000000002      17.507999999999999
    43   7      7.4759700000000002      7.2823799999999999      17.588100000000001
    44   2      6.9128400000000001      6.0916699999999997      17.446899999999999
    45   7      5.7419099999999998      5.9360999999999997      17.296199999999999
    46   7      7.8194800000000004      5.0701000000000001                 17.4773
    47   4      9.1588999999999992      5.6528600000000004                 19.0471
    48   4      10.033300000000001      5.2075100000000001      17.596399999999999
    49   4      9.2252799999999997      7.2796900000000004                 16.4635
    50   4      9.4320699999999995      7.8855199999999996      18.164899999999999
    51   2      11.394600000000001                 1.80291      5.6321899999999996
    52   2                 10.5093      3.0062199999999999      5.2450700000000001
    53   7      9.3188999999999993                 2.84694      6.1739699999999997
    54   2      9.8096999999999994      2.0553400000000002      7.1804399999999999
    55   7      9.1585300000000007      2.0462699999999998      8.1999200000000005
    56   7      10.980499999999999      1.4555499999999999      6.9859600000000004
    57   4                 12.4876      2.0275099999999999      5.7063499999999996
    58   4                 11.2296     0.88748099999999996      5.0197900000000004
    59   4                 10.2013      2.9315600000000002      4.1347800000000001
    60   4                 10.9764      3.9700199999999999      5.4302799999999998
    61   2                -12.6015     -7.9020700000000001      8.9875799999999995
    62   2                -11.7355     -7.5320499999999999                 7.80206
    63   7                -10.3855     -8.1069099999999992      8.1123799999999999
    64   2     -10.549200000000001     -8.8004099999999994      9.2682199999999995
    65   7                -9.63856     -9.4410600000000002      9.8953399999999991
    66   7                -11.7584     -8.7964099999999998      9.8413799999999991
    67   4     -13.391400000000001     -8.4953400000000006      8.7729400000000002
    68   4                -12.9305     -7.0509599999999999      9.5846400000000003
    69   4     -11.589700000000001     -6.4264400000000004      7.8493700000000004
    70   4     -12.074199999999999     -8.1310199999999995      6.8837099999999998
    71   2                 10.9923      24.519600000000001     -10.754300000000001
    72   2                 12.2995                 24.3627     -10.094200000000001
    73   7                 13.2082                 24.1555     -11.234500000000001
    74   2      12.543699999999999      24.722799999999999     -12.340199999999999
    75   7      12.989599999999999                  24.718     -13.492599999999999
    76   7      11.376300000000001      25.293099999999999                 -11.939
    77   4      10.298999999999999      25.116299999999999                -10.2187
    78   4                 10.5587                 23.6297     -11.173299999999999
    79   4      12.385899999999999      23.515999999999998     -9.3951499999999992
    80   4      12.677099999999999                 25.2624     -9.6251200000000008
    81   2      7.2619499999999997                 14.9588      6.2671400000000004
    82   2      5.8174000000000001                 15.5075      6.2482600000000001
    83   7      4.9913600000000002                 14.3691      6.6499699999999997
    84   2      5.7874600000000003      13.413600000000001      7.1628600000000002
    85   7      5.3834200000000001      12.410600000000001      7.6769499999999997
    86   7                 7.12296      13.785399999999999      7.0959899999999996
    87   4      8.0244900000000001      15.612500000000001      6.7375400000000001
    88   4      7.4965999999999999                 14.6869                 5.18086
    89   4      5.4867499999999998                 15.6928      5.2472000000000003
    90   4      5.5906000000000002      16.386099999999999      6.9120999999999997
    91   2     -2.6420400000000002      14.924300000000001                  3.1187
    92   2     -3.4571200000000002      14.944800000000001                 1.87788
    93   7     -2.6184699999999999      14.088100000000001                 0.93589
    94   2     -1.9245300000000001      13.165100000000001                 1.72882
    95   7     -1.4998499999999999      12.094200000000001                 1.37307
    96   7     -1.8960699999999999      13.700900000000001      3.0006499999999998
    97   4     -3.2063899999999999                 14.9138      4.0625600000000004
    98   4     -1.9252100000000001                 15.7895      3.2373599999999998
    99   4                -3.68919      15.873900000000001      1.3723799999999999
   100   4     -4.3696200000000003                 14.3954                 2.01932
   101   2      3.6641599999999999      9.3890600000000006      6.3887099999999997
   102   2      3.8506100000000001      9.0034600000000005      7.8617999999999997
   103   7                 2.64838      8.2284799999999994                 8.11937
   104   2                 1.73546      8.3513699999999993      7.0146300000000004
   105   7     0.61947099999999999      7.8205799999999996      6.9515200000000004
   106   7      2.2120799999999998      9.2222000000000008      6.0862100000000003
   107   4      4.0975299999999999      8.6785599999999992      5.7018700000000004
   108   4      3.8991099999999999                 10.4533      6.1592000000000002
   109   4      3.8729300000000002      9.9303299999999997      8.4875699999999998
   110   4      4.8120099999999999      8.4320500000000003      8.1186500000000006
   111   2     -6.0050100000000004     -2.5179200000000002     -3.1055299999999999
   112   2     -5.3079400000000003     -3.8170199999999999     -2.5599400000000001
   113   7     -6.3233600000000001     -4.9071800000000003     -2.9595899999999999
   114   2     -7.4451099999999997     -4.3079400000000003     -3.5099900000000002
   115   7     -8.3684499999999993                -4.87758     -4.0025000000000004
   116   7     -7.2938099999999997     -2.9044400000000001     -3.6204299999999998
   117   4                -5.41622     -2.1659999999999999     -3.9391699999999998
   118   4     -6.1871499999999999     -1.7062299999999999     -2.3361499999999999
   119   4     -5.1840000000000002     -3.8536999999999999     -1.4767399999999999
   120   4     -4.3852799999999998     -4.0758999999999999     -3.1550699999999998
   121   2      21.665800000000001      17.605799999999999      4.2908099999999996
   122   2                 21.5047      16.356200000000001      5.2354900000000004
   123   7      22.779900000000001      16.295999999999999      5.9615900000000002
   124   2      23.607099999999999                 17.2258      5.3990900000000002
   125   7      24.753399999999999      17.433700000000002      5.7579099999999999
   126   7      23.069199999999999      18.005600000000001      4.4688400000000001
   127   4      21.045300000000001      18.412600000000001      4.6704600000000003
   128   4      21.485600000000002      17.316400000000002                 3.22688
   129   4      21.365500000000001      15.343299999999999      4.8103800000000003
   130   4                 20.7182      16.554200000000002      6.0601900000000004
   131   2                 11.9666      19.776299999999999      15.801500000000001
   132   2                 11.3134      18.453399999999998                 15.2819
   133   7                 12.2621      17.860600000000002      14.264699999999999
   134   2      13.211399999999999      18.857900000000001                 14.0556
   135   7                 14.1623      18.798100000000002                 13.2258
   136   7                 12.9278      20.029900000000001      14.731199999999999
   137   4                 12.4876      19.550699999999999      16.706900000000001
   138   4      11.257400000000001      20.614999999999998      15.911899999999999
   139   4                   10.34                 18.6523                 14.8094
   140   4      11.261900000000001      17.698399999999999      16.053100000000001
   141   2      24.975300000000001      25.481200000000001      4.8997999999999999
   142   2      24.707100000000001      24.742799999999999      6.2038700000000002
   143   7      23.238800000000001      24.734300000000001      6.2555199999999997
   144   2      22.831600000000002                 25.7287                 5.47933
   145   7      21.726099999999999      26.220300000000002      5.3949100000000003
   146   7                 23.8413                 26.2364                  4.6818
   147   4                 25.1599                 24.8565                 4.04162
   148   4                 25.8489      26.232600000000001      4.9068500000000004
   149   4                  25.029      25.375399999999999      7.0742399999999996
   150   4      24.963899999999999      23.670400000000001      6.1425700000000001
   151   2     -5.5297799999999997      15.998200000000001     -6.8207199999999997
   152   2                -4.79582      16.502300000000002     -8.0916200000000007
   153   7     -3.9883000000000002      17.592700000000001     -7.6392100000000003
   154   2     -4.1751100000000001      17.724599999999999                -6.29718
   155   7                -3.59829      18.535399999999999     -5.6310399999999996
   156   7     -5.0998700000000001      16.900200000000002     -5.7544899999999997
   157   4     -5.4127000000000001                 14.9024     -6.5715500000000002
   158   4     -6.6397500000000003                 16.0807     -6.9914399999999999
   159   4                -5.59328      16.893699999999999     -8.7310599999999994
   160   4     -4.2551899999999998                 15.7376     -8.5439100000000003
   161   2     -1.5258799999999999      14.148099999999999                 14.6136
   162   2               -0.137518                 14.4879      15.033200000000001
   163   7     0.68071800000000005      13.345700000000001                 14.5609
   164   2    -0.23245499999999999      12.303100000000001      14.251099999999999
   165   7     0.17219699999999999                 11.2112                 14.0166
   166   7     -1.5158499999999999                 12.7011      14.463200000000001
   167   4                -1.98384      14.591699999999999      13.702400000000001
   168   4     -2.3304399999999998      14.253399999999999      15.380000000000001
   169   4    0.032849499999999997                 14.5396      16.119199999999999
   170   4     0.19689400000000001                 15.4633      14.640499999999999
   171   2      19.522099999999998      24.240200000000002      21.684699999999999
   172   2      20.965499999999999                 23.9101      21.269300000000001
   173   7                 21.6221      23.725899999999999      22.583600000000001
   174   2      20.892600000000002      24.409700000000001      23.491299999999999
   175   7      21.237500000000001      24.512599999999999      24.683599999999998
   176   7                 19.7257      24.878299999999999      23.036100000000001
   177   4      18.776900000000001      23.397300000000001      21.742799999999999
   178   4      18.938400000000001      24.886299999999999      21.029399999999999
   179   4                 21.2913                 24.7239                 20.6769
   180   4      21.025700000000001      23.029900000000001      20.692499999999999
   181   2                 15.8161                 10.5045      14.472899999999999
   182   2      17.179099999999998                 11.1135                 14.6441
   183   7      17.116499999999998      12.499000000000001                 14.1561
   184   2                 15.9109      12.662699999999999      13.577400000000001
   185   7                 15.5266                 13.7287                 13.0799
   186   7      15.190899999999999                 11.5283                 13.4831
   187   4      15.159700000000001                 10.4674                 15.3371
   188   4      15.744400000000001      9.4172799999999999                 14.0251
   189   4      17.875699999999998                  10.544                 13.9247
   190   4      17.510400000000001      11.082100000000001      15.680099999999999
   191   2      16.336200000000002      24.421900000000001      18.824100000000001
   192   2      14.844200000000001      24.002300000000002                 18.8751
   193   7                 14.8909      22.799299999999999                  19.657
   194   2      16.090599999999998      22.727699999999999      20.345600000000001
   195   7      16.453199999999999      21.869900000000001                 21.1599
   196   7      16.976299999999998                 23.6694      19.888000000000002
   197   4                 16.5672                 25.4832                 18.9986
   198   4      16.848700000000001      24.260200000000001      17.790099999999999
   199   4      14.267899999999999                 23.6495      17.986899999999999
   200   4                 14.2819      24.787600000000001                 19.3461
   201   2      13.210000000000001      14.002800000000001      20.718399999999999
   202   2      13.784800000000001                 14.0229                 22.1538
   203   7                 15.2645                 13.6013                 22.0093
   204   2                 15.4703                 13.4757      20.691400000000002
   205   7      16.520700000000001                 12.9932      20.297499999999999
   206   7                 14.4069      13.896100000000001      19.933499999999999
   207   4                  12.696      14.938700000000001      20.434100000000001
   208   4                 12.5017                 13.1929                 20.5807
   209   4                 13.3797      13.199999999999999                 22.7346
   210   4      13.667400000000001                  14.962                 22.6877
   211   2      19.351199999999999                 15.2399                 19.2544
   212   2                 20.2471      14.008699999999999      19.026499999999999
   213   7      19.600000000000001      13.357100000000001      17.790099999999999
   214   2      18.267099999999999      13.694100000000001      17.863800000000001
   215   7      17.403400000000001      13.081300000000001      17.255500000000001
   216   7      18.102900000000002      14.789199999999999      18.681999999999999
   217   4                 19.7075      16.023800000000001      18.664899999999999
   218   4      19.259399999999999      15.430899999999999                 20.3108
   219   4      20.389700000000001      13.285500000000001                 19.8401
   220   4      21.271100000000001                 14.2265                 18.6129
   221   2     -4.5038400000000003                 19.0594                 6.15632
   222   2     -3.3680699999999999                 18.3034      5.4567199999999998
   223   7                -2.70913      19.437100000000001      4.7569900000000001
   224   2     -3.1974999999999998                 20.6266      5.2886100000000003
   225   7     -2.8394900000000001      21.742599999999999      4.9085799999999997
   226   7     -4.0559000000000003      20.418600000000001                 6.24939
   227   4     -4.7003599999999999      18.889600000000002      7.2339700000000002
   228   4     -5.3370899999999999      18.981100000000001      5.4321099999999998
   229   4     -3.8920400000000002      17.741700000000002      4.6152899999999999
   230   4     -2.6010200000000001      17.832899999999999      6.1403600000000003
   231   2                  11.131      17.486599999999999      21.943899999999999
   232   2      9.6890900000000002                  17.782                 22.1999
   233   7      9.1764399999999995      16.370699999999999                 22.0062
   234   2                 10.1511                 15.4781      22.369499999999999
   235   7                 10.0457      14.281000000000001      22.479700000000001
   236   7                 11.3392      16.145600000000002      22.573899999999998
   237   4                 11.8301                 18.1676      22.496500000000001
   238   4                 11.3398      17.331299999999999      20.895299999999999
   239   4      9.1665100000000006                 18.2913      21.407900000000001
   240   4      9.5610099999999996      18.245799999999999                 23.1723
   241   2      7.4324399999999997      22.421800000000001      19.415400000000002
   242   2      7.0733100000000002      23.728400000000001      20.196899999999999
   243   7      5.6384299999999996      23.651199999999999                 20.3887
   244   2      5.1708699999999999      22.478999999999999                 19.8611
   245   7      4.0061099999999996      22.136800000000001      19.935600000000001
   246   7      6.1379200000000003      21.707599999999999                 19.3094
   247   4      8.0989100000000001                 21.6921      19.872900000000001
   248   4      7.8221600000000002      22.508600000000001                 18.4053
   249   4      7.3415999999999997      24.681699999999999      19.722799999999999
   250   4      7.5322100000000001      23.722799999999999                 21.1981
   251   2      19.220300000000002      20.634599999999999      1.2660499999999999
   252   2      18.295500000000001      19.400500000000001      1.4970600000000001
   253   7                 18.3094                 18.7866                0.153171
   254   2      18.759799999999998      19.667000000000002    -0.73792199999999997
   255   7      18.782399999999999      19.463100000000001     -1.9567600000000001
   256   7      19.282599999999999                 20.8155               -0.207343
   257   4                 20.2042      20.442399999999999      1.6775199999999999
   258   4                 18.7073      21.511199999999999      1.7946800000000001
   259   4      17.290099999999999                 19.6816                 1.81541
   260   4      18.638000000000002      18.560099999999998      2.2597499999999999
   261   2      2.3367599999999999                 11.4312     -1.9188499999999999
   262   2      1.4070400000000001                 10.9274    -0.88331899999999997
   263   7                 1.72618      9.5022500000000001    -0.84755400000000003
   264   2                 2.47953      9.2076799999999999     -1.9285699999999999
   265   7                 3.02874      8.1746300000000005     -2.2275299999999998
   266   7                 2.52189                 10.2707     -2.7492700000000001
   267   4      3.3255300000000001                 11.9091                -1.63226
   268   4      1.8515699999999999                 12.2509     -2.4688599999999998
   269   4     0.31717600000000001                 11.0999    -0.96780900000000003
   270   4      1.7368699999999999                 11.1906    0.076243699999999998
   271   2      6.7017300000000004                 11.7875                 10.9108
   272   2      7.8447699999999996                 10.7631                 10.8477
   273   7      7.2023999999999999      9.4726099999999995                 10.7333
   274   2      5.9414699999999998      9.5713799999999996                 11.1364
   275   7      5.2310699999999999      8.6434499999999996      11.370799999999999
   276   7      5.5574399999999997      10.880800000000001                 11.0161
   277   4      6.5904400000000001      12.437900000000001      10.072100000000001
   278   4      6.6675700000000004      12.450200000000001      11.804399999999999
   279   4                 8.54514                 10.7066      11.719799999999999
   280   4      8.5389400000000002      10.943300000000001      10.020300000000001
   281   2      8.3757800000000007      6.3334700000000002      13.205399999999999
   282   2      7.7975399999999997      5.2290799999999997      14.079000000000001
   283   7      7.3194600000000003      4.2497699999999998                  13.179
   284   2      7.6100700000000003      4.6080699999999997      11.969900000000001
   285   7      7.3011799999999996      3.9573999999999998                 10.9815
   286   7                 8.28247      5.7238499999999997                 11.8911
   287   4      9.4421300000000006      6.6393300000000002                 13.3706
   288   4      7.6930199999999997      7.2097800000000003                 13.1852
   289   4      6.9518000000000004                 5.52562      14.731299999999999
   290   4      8.5679999999999996      4.8446300000000004      14.726800000000001
   291   2      16.944400000000002      3.8037000000000001      9.6681899999999992
   292   2      16.492899999999999      3.5800800000000002      8.2174700000000005
   293   7      16.408799999999999      4.9675500000000001      7.6919399999999998
   294   2      16.625399999999999      5.8732499999999996      8.6431900000000006
   295   7      16.705100000000002      7.0785200000000001      8.5016300000000005
   296   7      16.768899999999999                 5.23306      9.8824199999999998
   297   4      17.997199999999999      3.5533399999999999      9.8959299999999999
   298   4      16.239000000000001                 3.27698                  10.292
   299   4      15.409000000000001      3.2423700000000002      8.1873000000000005
   300   4      17.160799999999998      2.9773800000000001      7.6551299999999998
   301   2      20.404199999999999      10.316000000000001      4.4395300000000004
   302   2      19.858599999999999      10.208600000000001      5.8553499999999996
   303   7      19.232299999999999      8.8689300000000006      5.9234299999999998
   304   2      19.596399999999999      8.1819799999999994      4.7786099999999996
   305   7                  19.398      6.9825799999999996      4.6117600000000003
   306   7                 20.4132      8.9088700000000003      3.9306999999999999
   307   4                 21.2896      10.819900000000001      4.3394000000000004
   308   4      19.667400000000001                 10.7699                 3.81603
   309   4      19.088699999999999                 10.9823      6.0542400000000001
   310   4      20.615400000000001                  10.254      6.6557899999999997
   311   2     0.86218300000000003      19.052700000000002      12.377000000000001
   312   2     0.21406500000000001      20.186900000000001                 13.1188
   313   7               -0.246916      19.591100000000001                  14.388
   314   2     0.43780999999999998                 18.4465      14.600899999999999
   315   7                0.470412                 17.7774                 15.5946
   316   7                 1.18329      18.089600000000001                 13.4274
   317   4      1.8017399999999999                 19.4377      11.976900000000001
   318   4     0.31568600000000002      18.692599999999999      11.521000000000001
   319   4    -0.69620099999999996      20.598700000000001      12.661300000000001
   320   4     0.88587499999999997      21.049099999999999                 13.2468
   321   2      11.386200000000001     -8.5241399999999992      16.970099999999999
   322   2                 12.3362                -7.71814      16.064800000000002
   323   7                 13.5228     -8.5993200000000005      16.067799999999998
   324   2      13.509399999999999     -9.3392099999999996      17.154900000000001
   325   7                 14.3104                -10.2498      17.407599999999999
   326   7                 12.3195     -9.1879299999999997      17.900700000000001
   327   4                  10.895     -9.2940000000000005                 16.3827
   328   4      10.748200000000001     -7.9209300000000002      17.616299999999999
   329   4                 12.5303     -6.7388700000000004      16.406500000000001
   330   4      11.963800000000001     -7.7000900000000003      15.074400000000001
   331   2                 15.7346      21.544699999999999      14.341200000000001
   332   2                 14.9175      22.497900000000001                 13.4337
   333   7                 15.6052      23.752400000000002      13.620200000000001
   334   2      16.260200000000001                 23.7468      14.786899999999999
   335   7      16.811599999999999                 24.6815                 15.3482
   336   7      16.251200000000001      22.516400000000001      15.348000000000001
   337   4      16.643799999999999      21.128799999999998                 13.8367
   338   4                 15.1142                 20.7834                 14.7819
   339   4                 13.8353      22.740300000000001                  13.762
   340   4      14.937099999999999      22.392800000000001      12.320399999999999
   341   2      18.849299999999999    -0.24954499999999999      17.589099999999998
   342   2      19.282699999999998    -0.52999499999999999                 16.1159
   343   7      20.178000000000001     0.65291999999999994                 15.7323
   344   2      20.408799999999999                 1.34615                  16.852
   345   7      21.061399999999999                 2.35846      17.053899999999999
   346   7      19.783200000000001     0.85019999999999996      17.945900000000002
   347   4      18.831700000000001     -1.0582499999999999      18.209599999999998
   348   4      17.858699999999999                0.233345      17.620200000000001
   349   4                 18.4024    -0.59310700000000005      15.473000000000001
   350   4      19.878900000000002     -1.4348399999999999                 16.0259
   351   2      7.5602200000000002      10.701700000000001      5.4108200000000002
   352   2      8.2076499999999992                  9.4215      4.8357700000000001
   353   7      9.3073899999999998                 9.27257      5.7454799999999997
   354   2      9.5467600000000008      10.370699999999999      6.5390499999999996
   355   7                 10.5549      10.591699999999999      7.2113399999999999
   356   7      8.4447899999999994                 11.1492      6.5072900000000002
   357   4                 6.58535                 10.4397      5.8264500000000004
   358   4      7.5763299999999996                 11.4763      4.6919000000000004
   359   4                 8.53017      9.3842700000000008      3.8121900000000002