(written by ASE)

888 atoms
9 atom types

0.0      21.553999999999998  xlo xhi
0.0      21.553999999999998  ylo yhi
0.0                  21.544  zlo zhi

Atoms # atomic

     1   2     -32.789400000000001     -11.520099999999999      19.452300000000001
     2   4                -33.3932                -10.8483      18.778199999999998
     3   4     -33.287599999999998                -11.5693      20.494299999999999
     4   7     -31.489000000000001     -11.021100000000001      19.663900000000002
     5   2     -30.616599999999998     -11.809900000000001      18.991800000000001
     6   7     -29.386199999999999     -11.666499999999999      18.857500000000002
     7   7     -31.265699999999999     -12.882999999999999      18.398599999999998
     8   2     -32.701599999999999     -12.873699999999999                 18.7621
     9   4     -32.856699999999996                -13.7204      19.434100000000001
    10   4     -33.372799999999998                -12.9946      17.878599999999999
    11   2     -26.829599999999999     -6.5035800000000004      4.2474600000000002
    12   4                -25.8948     -6.0078699999999996      4.5521099999999999
    13   4     -27.339700000000001                 15.7285      3.5906199999999999
    14   7                -27.6328                 -6.8586      5.4068899999999998
    15   2     -28.055399999999999     -8.1147100000000005      5.2017600000000002
    16   7     -28.934200000000001     -8.5588800000000003      5.8926100000000003
    17   7     -27.358599999999999     -8.8049499999999998      4.3000800000000003
    18   2     -26.444900000000001     -7.8075200000000002      3.5938400000000001
    19   4     -26.660599999999999     -8.0037699999999994                 2.56352
    20   4                -25.4069     -8.0414700000000003      3.7911100000000002
    21   2     -27.912099999999999                -2.79223                    4.04
    22   4     -27.116099999999999     -2.4182100000000002                 3.39832
    23   4     -28.085799999999999     -3.8775400000000002                 3.74396
    24   7     -29.133500000000002     -1.9748600000000001      3.7101000000000002
    25   2                -29.2925     -1.1391500000000001      4.7915000000000001
    26   7     -30.071400000000001    -0.18436900000000001      4.7999299999999998
    27   7     -28.485399999999998     -1.3617999999999999      5.8724999999999996
    28   2     -27.676100000000002     -2.5927500000000001      5.5189300000000001
    29   4     -28.023900000000001     -3.4595500000000001      6.1414200000000001
    30   4     -26.674299999999999     -2.3352400000000002                 5.87582
    31   2                -15.4832      4.1455000000000002     -2.2690000000000001
    32   4     -16.429400000000001      4.3970700000000003                -1.74613
    33   4     -14.928800000000001      5.0968799999999996                -2.18866
    34   7                -15.8164      3.9788000000000001     -3.7005599999999998
    35   2     -14.984500000000001                 3.05565     -4.2042099999999998
    36   7     -14.952999999999999      2.7223299999999999     -5.3703599999999998
    37   7     -14.222799999999999                 2.47268     -3.2471100000000002
    38   2                -14.7127      2.8521399999999999     -1.9127799999999999
    39   4     -13.812099999999999      2.9539399999999998     -1.2984199999999999
    40   4                -15.3178      1.9788300000000001                 -1.5359
    41   2     -23.183900000000001     -5.9253999999999998      17.388100000000001
    42   4     -22.588799999999999                -4.99688      17.310199999999998
    43   4                -23.3263                -6.34734      16.435300000000002
    44   7     -24.389299999999999     -5.5696000000000003      17.958500000000001
    45   2     -24.537800000000001     -6.0657300000000003      19.225300000000001
    46   7     -25.606000000000002     -5.8974599999999997      19.811299999999999
    47   7     -23.520199999999999     -6.7700699999999996      19.638400000000001
    48   2     -22.438199999999998     -6.7291499999999997      18.554200000000002
    49   4     -22.302099999999999     -7.7913699999999997      18.251100000000001
    50   4     -21.446899999999999     -6.3092699999999997      18.965199999999999
    51   2     -16.595300000000002      11.837199999999999      12.631600000000001
    52   4     -16.231200000000001      12.037699999999999                 11.5741
    53   4                -16.1511      12.452400000000001                 13.4115
    54   7     -16.154399999999999                -11.1043      12.856299999999999
    55   2                -17.0885                -11.8956                 12.2636
    56   7                -16.8263                -13.0097                 11.9024
    57   7     -18.289000000000001                 10.2616      12.143000000000001
    58   2                -18.2073                  11.644      12.677199999999999
    59   4     -18.688800000000001      11.635300000000001      13.708299999999999
    60   4                -18.6449      12.220499999999999                 11.9666
    61   2                 -17.645     -3.4241100000000002      17.930199999999999
    62   4     -17.413399999999999     -4.0726000000000004      17.099699999999999
    63   4     -16.798999999999999     -3.4090400000000001      18.594999999999999
    64   7                -18.7818     -3.9551799999999999      18.702000000000002
    65   2     -19.913799999999998     -3.3273100000000002      18.276800000000001
    66   7     -20.996400000000001                 -3.6934      18.577200000000001
    67   7     -19.644300000000001     -2.2328800000000002      17.561499999999999
    68   2     -18.131900000000002     -2.0130599999999998                 17.4695
    69   4                -18.0212                -1.20404      18.084900000000001
    70   4     -17.817900000000002     -1.7941400000000001                 16.4529
    71   2     -28.866399999999999      5.9782400000000004     -1.3037300000000001
    72   4     -28.375900000000001      5.1775399999999996    -0.65497399999999995
    73   4                -29.5581                 6.54596    -0.61443400000000004
    74   7     -29.714700000000001      5.4023899999999996     -2.3109600000000001
    75   2                -29.1873                 -15.914     -3.5478900000000002
    76   7     -29.578900000000001     -16.345300000000002     -4.6006600000000004
    77   7     -28.094799999999999      6.4418600000000001     -3.4746800000000002
    78   2                -27.7562      6.7503799999999998     -2.1039400000000001
    79   4     -27.816099999999999      7.8268800000000001     -1.9306399999999999
    80   4     -26.798500000000001      6.3664500000000004                -1.78311
    81   2     -29.675000000000001     -12.944100000000001      9.3370999999999995
    82   4                -29.1371                -13.8712      9.0390999999999995
    83   4                 -30.706     -13.014699999999999      9.0077300000000005
    84   7     -28.976099999999999                 -11.833      8.6615900000000003
    85   2                -29.0092                -10.7597      9.5118399999999994
    86   7                -28.6464     -9.7074599999999993      9.1348400000000005
    87   7     -29.293800000000001                -11.0943                  10.762
    88   2                -29.5474     -12.555300000000001                 10.8132
    89   4     -30.486499999999999                -12.6553                 11.2333
    90   4     -28.744900000000001                -13.0214      11.335000000000001
    91   2                -17.3536     -9.0366700000000009      22.206600000000002
    92   4     -17.314900000000002     -9.5805299999999995      21.252199999999998
    93   4                -16.9572     -9.6739099999999993                 23.0855
    94   7                -18.7685     -8.7395600000000009      22.465199999999999
    95   2                -19.0245     -7.4434300000000002      22.041599999999999
    96   7     -20.074999999999999     -6.9134000000000002      21.955100000000002
    97   7                -17.8522     -6.8254799999999998      21.583600000000001
    98   2                -16.7073     -7.5972099999999996      22.128900000000002
    99   4     -16.458600000000001     -7.1772999999999998                 23.0898
   100   4     -15.986499999999999     -7.6520900000000003      21.364999999999998
   101   2     -19.802299999999999     -5.3377600000000003      9.6797400000000007
   102   4     -20.004100000000001     -4.9550400000000003                   10.74
   103   4     -19.370699999999999     -6.3822000000000001      9.6779700000000002
   104   7     -18.802900000000001     -4.4828099999999997      9.0292300000000001
   105   2                -19.4495     -3.4872800000000002      8.3796900000000001
   106   7                -18.8444     -2.5724800000000001      7.8769600000000004
   107   7                -20.7942     -3.6975500000000001      8.2982099999999992
   108   2                -21.0654     -5.1623700000000001      8.8711000000000002
   109   4     -21.194199999999999                -5.88049      8.0603999999999996
   110   4     -21.949000000000002     -4.9139799999999996      9.4725800000000007
   111   2     -24.816500000000001                 7.17591     -6.2485600000000003
   112   4                -24.2636      7.1493500000000001      14.375999999999999
   113   4     -25.356999999999999      8.1358099999999993     -6.0750700000000002
   114   7                -23.8599      7.1486999999999998     -5.1879299999999997
   115   2                -23.8644      5.8930600000000002     -4.5820999999999996
   116   7     -23.114599999999999      5.5769200000000003     -3.6415700000000002
   117   7     -24.822500000000002      5.1257200000000003     -5.1452400000000003
   118   2     -25.613099999999999      5.8877899999999999     -6.1677799999999996
   119   4     -26.609400000000001      6.0705499999999999     -5.7114099999999999
   120   4                -25.7743      5.3023499999999997                 14.4786
   121   2     -37.964399999999998                -12.8927      21.985299999999999
   122   4     -38.854999999999997                -12.4756      21.411000000000001
   123   4     -38.450499999999998     -13.525700000000001                 22.7318
   124   7     -37.200000000000003     -11.712300000000001                 22.3811
   125   2     -36.008600000000001                -11.6828      21.675000000000001
   126   7     -35.136299999999999                -10.8569      21.741900000000001
   127   7     -35.955199999999998     -12.720000000000001      20.779900000000001
   128   2     -36.997900000000001                -13.6775      21.075299999999999
   129   4     -36.514000000000003     -14.555300000000001      21.634799999999998
   130   4     -37.527000000000001                -14.0199                 20.1953
   131   2                -17.8843     -7.6846100000000002                 18.1982
   132   4     -17.706099999999999     -7.7982100000000001                  19.308
   133   4     -18.542100000000001     -6.8290100000000002      17.994700000000002
   134   7     -18.601199999999999     -8.8458199999999998      17.667100000000001
   135   2     -17.844999999999999     -9.4336800000000007                 16.6204
   136   7                -18.1968     -10.366300000000001                 15.8933
   137   7     -16.697500000000002     -8.7442499999999992      16.399799999999999
   138   2     -16.544499999999999     -7.5728299999999997      17.333300000000001
   139   4     -16.551200000000001     -6.5340800000000003                 16.7607
   140   4     -15.545299999999999     -7.7280699999999998      17.843499999999999
   141   2     -9.6549899999999997                -4.22201      6.2680899999999999
   142   4     -9.7829300000000003     -3.7524899999999999      5.3191199999999998
   143   4     -32.170000000000002     -4.5824800000000003                 6.74465
   144   7     -30.568000000000001     -3.3871199999999999      7.2422599999999999
   145   2     -29.746300000000002     -4.2232900000000004      8.0363299999999995
   146   7     -29.131499999999999     -3.9827499999999998      9.0265699999999995
   147   7     -7.8901399999999997     -5.4134599999999997                 7.37033
   148   2     -8.8330699999999993     -5.5515800000000004      6.2079399999999998
   149   4     -9.4384599999999992     -6.4730100000000004      6.3278299999999996
   150   4     -8.2278800000000007     -5.7022300000000001      5.3237500000000004
   151   2     -26.542300000000001                -10.7539                 12.7606
   152   4     -26.486599999999999                -10.1936                 13.7013
   153   4     -27.623000000000001     -10.620799999999999      12.351000000000001
   154   7     -26.209900000000001                -12.1395                 12.8101
   155   2     -25.320699999999999                -12.4339      11.810600000000001
   156   7     -24.907499999999999     -13.542400000000001                 11.5945
   157   7     -24.996500000000001                 -11.356                 11.0954
   158   2     -25.509599999999999     -10.210699999999999                 11.7493
   159   4     -25.973199999999999                 12.0105      11.030099999999999
   160   4     -24.672999999999998                 11.6914                 12.2906
   161   2     -36.351399999999998     -3.8500700000000001      20.929600000000001
   162   4     -36.443899999999999                -4.41622      19.974799999999998
   163   4     -36.631999999999998     -4.5112899999999998                 21.8812
   164   7     -37.257199999999997                -2.69807      20.871400000000001
   165   2     -36.551900000000003                -1.63652                 20.3718
   166   7                -15.4232    -0.59514400000000001      19.883500000000002
   167   7     -35.201000000000001     -1.7858099999999999      20.564699999999998
   168   2     -34.987099999999998                -3.14676                 21.1248
   169   4     -34.673699999999997     -3.1137899999999998                 22.2118
   170   4     -34.145400000000002     -3.4921799999999998      20.546399999999998
   171   2     -13.228300000000001                -5.35053                 14.6622
   172   4     -12.647399999999999     -6.1758899999999999      14.347200000000001
   173   4     -13.250299999999999     -4.5178500000000001                 13.9305
   174   7                -12.4313     -4.7991599999999996      15.817299999999999
   175   2     -13.292299999999999     -4.4549399999999997      16.831900000000001
   176   7                -13.0335     -3.6722700000000001      17.702300000000001
   177   7     -14.577500000000001     -4.9626599999999996      16.533799999999999
   178   2                -14.5724     -5.6657500000000001      15.296200000000001
   179   4                -15.4986     -5.4953900000000004                 14.7278
   180   4     -14.681900000000001     -6.7451100000000004      15.501899999999999
   181   2     -23.363399999999999                -11.5259      5.5543100000000001
   182   4     -23.517499999999998                 11.0189      5.2588800000000004
   183   4     -23.811399999999999                -11.6998      6.5470800000000002
   184   7     -21.938500000000001      9.8301499999999997      5.7086100000000002
   185   2     -21.376200000000001     -12.468299999999999      4.6689699999999998
   186   7                -20.1889                 -12.621      4.4161700000000002
   187   7                -22.4162                -12.9285      3.8892899999999999
   188   2                -23.7134     -12.613099999999999      4.5588199999999999
   189   4     -24.093800000000002                -13.5913      4.8985900000000004
   190   4                -24.2956                -12.1656      25.266200000000001
   191   2     -23.398399999999999                -1.34517                 18.2117
   192   4     -22.456700000000001                -1.82047      18.685700000000001
   193   4     -23.358699999999999    -0.28815299999999999      18.059100000000001
   194   7     -24.552700000000002                -1.64758      19.089200000000002
   195   2                -25.3416     -2.4919600000000002      18.485900000000001
   196   7                -26.3413                -2.84917      18.979900000000001
   197   7     -24.911300000000001     -2.9291100000000001      17.269100000000002
   198   2     -23.707899999999999     -2.1347999999999998      16.877099999999999
   199   4     -23.970099999999999     -1.5374399999999999                 15.9811
   200   4                -22.9071     -2.7841999999999998                 16.5214
   201   2     -23.545400000000001     -3.4711699999999999      21.488499999999998
   202   4     -23.283799999999999                -2.55078      21.955200000000001
   203   4     -23.408300000000001                -3.47492      20.367100000000001
   204   7     -24.993200000000002     -3.6712899999999999      21.809999999999999
   205   2                 -25.212     -4.8013000000000003      22.483000000000001
   206   7     -26.271999999999998     -5.2548199999999996                 22.8123
   207   7     -24.025200000000002     -5.4210200000000004      1.2897000000000001
   208   2     -22.885899999999999     -4.7053700000000003                 0.77237
   209   4                -22.3645     -5.4274699999999996                0.110623
   210   4     -22.196000000000002     -4.3521400000000003      1.5388500000000001
   211   2     -10.947900000000001     -8.0917700000000004      19.260999999999999
   212   4                -10.6418     -8.5413099999999993      18.322700000000001
   213   4                -10.2437                -8.33812                  20.093
   214   7     -12.267300000000001     -8.6338000000000008      19.724900000000002
   215   2                -13.2422     -7.6495100000000003                 19.7758
   216   7     -14.434900000000001     -7.9368100000000004                 19.8157
   217   7                -12.6851     -6.4877500000000001                 -2.0057
   218   2                -11.1951     -6.6371000000000002                -2.27583
   219   4                -32.3339     -6.1962700000000002     -1.3345899999999999
   220   4     -10.959099999999999     -5.9935400000000003     -3.1653799999999999
   221   2                -21.3598      12.431800000000001                 15.3002
   222   4     -20.540500000000002      13.032500000000001                  14.756
   223   4                -21.2972                 12.5021                   16.41
   224   7                 -21.169      10.994300000000001      15.075900000000001
   225   2                  -22.34      10.486800000000001      14.601800000000001
   226   7     -22.444900000000001                 9.31874      14.306800000000001
   227   7     -23.299299999999999      11.433400000000001                 14.3651
   228   2     -22.808399999999999      12.698700000000001      15.008699999999999
   229   4     -23.428799999999999                 12.7888                 15.8832
   230   4     -23.102900000000002      13.582700000000001                 14.4313
   231   2     -37.285499999999999      8.3489000000000004      16.910699999999999
   232   4     -37.811999999999998      9.2670700000000004                 17.1358
   233   4     -36.877899999999997      7.7547600000000001                 17.7608
   234   7     -36.213999999999999      8.5184200000000008                 15.9047
   235   2     -36.347200000000001      7.4736799999999999      15.024800000000001
   236   7     -14.088699999999999                 7.27332      14.053100000000001
   237   7     -37.376899999999999      6.5790100000000002                 15.3949
   238   2     -38.265000000000001      7.4528299999999996                 16.1492
   239   4     -38.776899999999998      6.7850000000000001      16.839099999999998
   240   4                -38.8947      7.8756700000000004                 15.3583
   241   2     -33.854900000000001     -9.0591299999999997      7.4259199999999996
   242   4     -34.216799999999999     -8.0450999999999997      7.1913099999999996
   243   4     -34.690199999999997     -9.8032699999999995      7.3021799999999999
   244   7     -33.573500000000003     -8.9956600000000009      8.8802800000000008
   245   2     -32.202599999999997     -8.8902599999999996      9.0709900000000001
   246   7     -31.629999999999999     -8.7368100000000002                 10.1546
   247   7                -31.5441     -8.8619400000000006      7.9245099999999997
   248   2     -32.482999999999997     -9.3269800000000007      6.8645100000000001
   249   4     -32.317999999999998                  -10.42      6.8021000000000003
   250   4     -32.219200000000001     -8.8499400000000001      5.9399899999999999
   251   2                -24.8354     -6.8612000000000002      9.6049399999999991
   252   4     -24.406199999999998     -6.1952400000000001      8.8894199999999994
   253   4     -24.338799999999999     -7.9161200000000003      9.4787400000000002
   254   7     -26.238199999999999                -6.93344      9.3795900000000003
   255   2     -26.895099999999999     -6.7001600000000003      10.533300000000001
   256   7     -28.098299999999998     -6.5553400000000002                 10.6134
   257   7     -26.060099999999998     -6.4566699999999999                 11.5557
   258   2     -24.677399999999999     -6.4493299999999998                 11.1007
   259   4     -24.215399999999999                 -7.1273                 11.7784
   260   4     -24.337900000000001     -5.4163800000000002      11.257300000000001
   261   2     -25.944099999999999      9.7766699999999993      19.649899999999999
   262   4     -26.851099999999999      9.3948199999999993                 19.2117
   263   4                -26.0276      9.7947199999999999      20.734100000000002
   264   7     -25.688800000000001                 11.0299      19.212599999999998
   265   2     -24.358000000000001      11.087899999999999                 18.8645
   266   7                -23.7683      12.086600000000001      18.505400000000002
   267   7                -23.7744      9.8834199999999992      18.990500000000001
   268   2                -24.6934      8.8104499999999994                 19.3322
   269   4                -24.4237      8.3959700000000002      20.328900000000001
   270   4     -24.780000000000001      8.0612200000000005      18.525099999999998
   271   2                -31.0002     -7.0027400000000002      12.662100000000001
   272   4     -30.928999999999998     -6.4252700000000003                 11.7103
   273   4     -32.082000000000001     -7.2544899999999997      12.793699999999999
   274   7     -30.537400000000002     -6.1393000000000004      13.715999999999999
   275   2     -29.544899999999998     -6.7767799999999996                 14.3568
   276   7     -29.003699999999998     -6.3710699999999996                  15.385
   277   7                -29.2882     -7.9859799999999996      13.824199999999999
   278   2                -30.0989     -8.2747799999999998                 12.6533
   279   4                -30.7058     -9.1676199999999994      12.806800000000001
   280   4                -29.4589     -8.4959000000000007      11.876799999999999
   281   2     -34.453000000000003                 10.3757                 11.6995
   282   4     -34.604700000000001      11.530799999999999                 11.6388
   283   4                -34.1541      9.9950399999999995      12.683400000000001
   284   7     -33.231000000000002     -11.570499999999999                 10.8797
   285   2     -33.592799999999997                -11.9709      9.6796600000000002
   286   7                -32.8125     -12.088800000000001      8.7872000000000003
   287   7     -34.926200000000001     -12.028700000000001      9.5572999999999997
   288   2     -35.526299999999999      9.6008399999999998                  10.898
   289   4                -35.6404      8.5806900000000006                 11.1325
   290   4     -36.409799999999997      10.181900000000001                 10.6228
   291   2     -25.854099999999999                 5.73515      6.0398899999999998
   292   4     -26.020099999999999      5.6699999999999999      7.1314599999999997
   293   4     -25.594999999999999                 6.78254      5.8444099999999999
   294   7                -27.1158      5.2479899999999997      5.4526399999999997
   295   2                -26.8797      4.1681100000000004      4.7827799999999998
   296   7     -27.738600000000002                 3.50169                 4.16608
   297   7     -25.586600000000001      3.8025500000000001      4.7746000000000004
   298   2                -24.8048      4.7951300000000003      5.5218600000000002
   299   4     -24.116399999999999      5.2918900000000004      4.8344800000000001
   300   4     -24.210599999999999      4.3607100000000001      6.2528199999999998
   301   2     -26.800599999999999                 10.4107      6.1966400000000004
   302   4     -27.928000000000001      10.395799999999999      6.2586500000000003
   303   4     -26.450600000000001                 10.8071      5.2355099999999997
   304   7     -26.294499999999999      9.0217200000000002      6.3736600000000001
   305   2     -26.002800000000001      8.8911300000000004      7.6935599999999997
   306   7     -25.982099999999999      7.7959500000000004      8.2105800000000002
   307   7     -25.891300000000001      10.101800000000001      8.2785700000000002
   308   2     -26.181999999999999                 11.1554      7.3127300000000002
   309   4     -25.259399999999999      11.732100000000001      7.0904800000000003
   310   4     -26.899899999999999                 11.9031      7.7565099999999996
   311   2     -21.799199999999999     -11.151899999999999      9.2274100000000008
   312   4     -21.278400000000001                -11.0807      8.2664100000000005
   313   4     -22.723700000000001     -11.805099999999999      9.2723800000000001
   314   7                -22.3432     -9.8404000000000007      9.6115200000000005
   315   2                -21.4026     -9.2519200000000001      10.386100000000001
   316   7     -21.480899999999998                -8.06114      10.775700000000001
   317   7     -20.359100000000002     -10.060600000000001      10.698600000000001
   318   2     -20.713799999999999     -11.428000000000001                 10.3012
   319   4     -21.108000000000001     -12.017099999999999                 11.1494
   320   4     -19.717500000000001                -11.8033      10.043100000000001
   321   2                -19.3567      4.2647199999999996     -3.9756800000000001
   322   4     -19.778300000000002      5.1832900000000004     -4.4623699999999999
   323   4     -18.919899999999998      4.6388600000000002     -3.0347400000000002
   324   7                -40.0672      3.5251000000000001     -4.9443999999999999
   325   2     -40.511299999999999      2.3210500000000001     -5.2752400000000002
   326   7     -39.991700000000002                 1.54589                -6.08474
   327   7     -41.629199999999997      2.0452400000000002     -4.5971399999999996
   328   2     -42.137999999999998      3.2599499999999999                -3.91086
   329   4     -42.520200000000003      2.9216500000000001     -2.9455200000000001
   330   4                -42.9863      3.5637300000000001     -4.5896999999999997
   331   2     -24.552600000000002      2.5101499999999999                 14.1114
   332   4     -25.510200000000001      1.9600500000000001      13.789099999999999
   333   4     -24.545400000000001      3.5899899999999998      14.187799999999999
   334   7                -23.4939                 2.05165      13.266999999999999
   335   2     -22.356300000000001                 1.98552      14.091100000000001
   336   7     -21.270700000000001      1.7422500000000001      13.657500000000001
   337   7                -22.6418                 2.15489                 15.4221
   338   2     -24.072900000000001      2.1054900000000001      15.607699999999999
   339   4     -24.399100000000001      2.8054800000000002      16.386299999999999
   340   4     -24.479900000000001      1.0851599999999999      15.835900000000001
   341   2                -29.3079      3.8295499999999998                 11.7315
   342   4     -29.430399999999999      4.9503399999999997      11.815200000000001
   343   4                 -28.808      3.5671200000000001      10.803100000000001
   344   7     -30.667000000000002      3.2373799999999999      11.594799999999999
   345   2     -30.955400000000001      2.5831599999999999                 12.7834
   346   7     -32.038400000000003      2.0924299999999998                 13.0587
   347   7     -29.899799999999999      2.6954400000000001      13.648400000000001
   348   2     -28.711400000000001      3.0728599999999999      12.895300000000001
   349   4     -28.179600000000001      2.1558000000000002      12.602600000000001
   350   4     -28.102499999999999      3.7254100000000001      13.546799999999999
   351   2                -22.6828     -9.8599999999999994      1.1384799999999999
   352   4     -22.230899999999998     -10.622400000000001     0.44905499999999998
   353   4     -21.871600000000001     -9.4279600000000006      1.6877200000000001
   354   7     -23.537500000000001     -10.539400000000001                 2.05246
   355   2                -24.8535                -10.2278                  1.8867
   356   7     -25.776199999999999                -10.6713      2.5490599999999999
   357   7     -24.994499999999999                -9.31602     0.80471300000000001
   358   2     -23.634599999999999     -8.8925800000000006     0.45705800000000002
   359   4                -23.5138     -7.8814599999999997     0.85815900000000001