(written by ASE)

888 atoms
9 atom types

0.0      21.553999999999998  xlo xhi
0.0      21.553999999999998  ylo yhi
0.0                  21.544  zlo zhi

Atoms # atomic

     1   2     -34.283200000000001                -12.7552                 19.0504
     2   4                -34.7911     -13.571099999999999      19.606999999999999
     3   4     -34.552900000000001                -12.8506      17.928100000000001
     4   7     -32.819899999999997     -13.150600000000001      18.912500000000001
     5   2     -32.048699999999997                -12.2689      19.540700000000001
     6   7     -30.827300000000001     -12.221500000000001                 19.5837
     7   7     -32.789999999999999     -11.243499999999999      20.102900000000002
     8   2     -34.223100000000002     -11.372299999999999      19.621099999999998
     9   4                -34.4054                -10.5876      18.860700000000001
    10   4     -34.896299999999997     -11.270099999999999      20.489100000000001
    11   2     -26.150500000000001     -7.2557200000000002      4.8901000000000003
    12   4     -25.575299999999999     -8.0739800000000006                 4.58352
    13   4     -25.594100000000001                 15.2113      4.9623400000000002
    14   7     -26.577400000000001     -7.7022399999999998      6.2309799999999997
    15   2                -27.8446     -8.1923899999999996      6.1889000000000003
    16   7     -28.445499999999999     -8.6658600000000003      7.1160399999999999
    17   7                -28.4148     -8.0064200000000003      4.9828200000000002
    18   2     -27.519500000000001                -7.16676      4.1960499999999996
    19   4     -27.863299999999999     -6.1669200000000002      4.2356600000000002
    20   4     -27.492000000000001     -7.5294400000000001      3.1674000000000002
    21   2     -27.517099999999999     -2.8538800000000002      4.0463100000000001
    22   4     -26.609000000000002                -2.53078      3.4404699999999999
    23   4                -27.7028                -3.90483      3.8344299999999998
    24   7     -28.744800000000001     -2.1905899999999998      3.7685300000000002
    25   2                -29.0397                -1.29508      4.7575599999999998
    26   7     -30.030000000000001    -0.62568999999999997      4.6645000000000003
    27   7     -28.211400000000001                -1.40506      5.8082099999999999
    28   2     -27.354299999999999     -2.5989599999999999      5.5711500000000003
    29   4     -27.805399999999999     -3.4197600000000001      6.1576399999999998
    30   4     -26.385899999999999                -2.33595      5.9706999999999999
    31   2                -15.4237                 2.11172     -1.5698399999999999
    32   4     -15.777900000000001      1.1066800000000001                -1.37592
    33   4                -15.8963      2.8635700000000002    -0.96513400000000005
    34   7                 -15.882      2.3527999999999998     -2.9417599999999999
    35   2                -14.8161      2.7429899999999998     -3.7182900000000001
    36   7     -14.890700000000001                 3.25881     -4.8145300000000004
    37   7                -13.6165                 2.58351     -3.0556399999999999
    38   2                -13.9192      2.2106699999999999                -1.65682
    39   4                -13.4749      3.0354999999999999     -1.0974200000000001
    40   4                -13.4344      1.2854099999999999     -1.3685400000000001
    41   2     -23.153600000000001     -7.1554900000000004                 17.2242
    42   4     -23.319800000000001     -6.3689499999999999      16.373000000000001
    43   4     -22.435400000000001     -8.0327500000000001      16.992000000000001
    44   7     -24.491599999999998                -7.56759      17.649799999999999
    45   2     -24.698799999999999     -7.2801499999999999      18.945599999999999
    46   7     -25.706299999999999     -7.4767999999999999      19.547000000000001
    47   7     -23.622299999999999     -6.6866199999999996      19.506900000000002
    48   2                -22.6248     -6.4501299999999997                 18.5501
    49   4     -21.648800000000001     -6.6802000000000001                 19.0138
    50   4     -22.636299999999999     -5.3587400000000001      18.413799999999998
    51   2     -16.177299999999999                 10.8345                 12.7883
    52   4                -15.4587      11.637499999999999      12.609299999999999
    53   4                -15.8362                 10.2629                 13.5991
    54   7     -16.132100000000001                -11.5389      11.543699999999999
    55   2     -17.387799999999999     -11.879899999999999      11.254799999999999
    56   7                -17.7058     -12.565799999999999      10.279999999999999
    57   7     -18.291799999999999      10.170500000000001      12.107799999999999
    58   2     -17.674900000000001                 11.2361                 12.9322
    59   4                -18.2742                 11.2257      13.867800000000001
    60   4     -18.000800000000002                  12.269                 12.4062
    61   2     -17.724699999999999     -3.9682900000000001                 17.3917
    62   4     -17.904800000000002     -4.1802700000000002                 16.3917
    63   4     -16.889700000000001     -4.5681700000000003      17.737100000000002
    64   7                -18.9071     -4.3604900000000004      18.088000000000001
    65   2     -19.517399999999999     -3.4093800000000001      18.716799999999999
    66   7                 -20.584     -3.4980600000000002      19.376300000000001
    67   7                -18.8431                -2.18269      18.575900000000001
    68   2     -17.578600000000002     -2.4862199999999999      17.783999999999999
    69   4     -16.690200000000001     -2.1654399999999998                 18.4209
    70   4     -17.611499999999999                -1.82603      16.892800000000001
    71   2     -28.183900000000001      6.9170499999999997                -1.39036
    72   4                -27.5459      6.2071699999999996                -0.88976
    73   4                -28.2042      7.9320899999999996    -0.86991600000000002
    74   7                -29.6065      6.3968999999999996                -1.59799
    75   2     -29.723199999999999                -15.4633     -2.9255499999999999
    76   7                -30.7224                -15.9191                -3.42028
    77   7     -28.596299999999999      6.2989699999999997     -3.6366399999999999
    78   2                -27.5989      6.9433100000000003     -2.7944399999999998
    79   4     -27.529299999999999      7.9457800000000001     -3.1953399999999998
    80   4     -26.663799999999998                 6.48895                -2.82802
    81   2     -30.400300000000001     -12.661199999999999      9.8490000000000002
    82   4     -30.672599999999999     -12.992599999999999      8.8433899999999994
    83   4                -31.1571                -12.8431                 10.6031
    84   7                -30.4376     -11.214499999999999      9.7531999999999996
    85   2                -29.3399     -10.747299999999999      10.382400000000001
    86   7                -29.2013     -9.5494599999999998                 10.5358
    87   7     -28.521100000000001     -11.722300000000001      10.827500000000001
    88   2                -28.9895     -12.992000000000001      10.265000000000001
    89   4     -28.791499999999999     -13.799799999999999      11.036099999999999
    90   4     -28.255400000000002     -13.192299999999999      9.3898499999999991
    91   2     -19.393899999999999     -8.3576700000000006      22.809699999999999
    92   4     -20.012599999999999     -8.9009300000000007      22.029199999999999
    93   4     -19.414300000000001     -8.8208599999999997      23.775099999999998
    94   7                -20.1265     -7.0183499999999999      23.090399999999999
    95   2                 -19.456     -6.0188300000000003      22.422899999999998
    96   7     -19.876300000000001     -4.9024700000000001      22.259899999999998
    97   7     -18.333100000000002     -6.5097199999999997      21.835599999999999
    98   2     -18.073399999999999     -7.8648400000000001                 22.3172
    99   4                -17.3597                -7.75495      23.137799999999999
   100   4                -17.6189     -8.5093099999999993      21.564599999999999
   101   2     -18.448799999999999     -4.3723599999999996      8.6660199999999996
   102   4     -17.759399999999999     -4.8756700000000004      9.4052900000000008
   103   4     -18.093499999999999     -4.7769199999999996      7.7078800000000003
   104   7     -18.554099999999998     -2.8801800000000002      8.6151199999999992
   105   2     -19.849799999999998                -2.57761      8.3126200000000008
   106   7                -20.2456     -1.4923299999999999      7.9292400000000001
   107   7                -20.7056     -3.6307200000000002      8.5874400000000009
   108   2     -19.896799999999999     -4.8490200000000003      8.7896099999999997
   109   4     -20.052600000000002     -5.4955299999999996      7.8917599999999997
   110   4     -20.053599999999999     -5.3776999999999999      9.7723399999999998
   111   2     -24.363900000000001      7.9027399999999997                -6.40686
   112   4     -23.806000000000001      7.8338299999999998                 14.2197
   113   4     -24.716799999999999      8.9088799999999999     -6.3695700000000004
   114   7     -23.468599999999999      7.6746999999999996     -5.2385999999999999
   115   2     -23.636099999999999      6.3850100000000003                -4.84537
   116   7     -22.974499999999999      5.8088600000000001     -3.9818099999999998
   117   7     -24.793900000000001      5.8754999999999997     -5.3551000000000002
   118   2                 -25.491      6.9024700000000001     -6.1497400000000004
   119   4     -26.276599999999998      7.4699799999999996     -5.6237899999999996
   120   4     -25.748799999999999      6.4362399999999997                 14.4392
   121   2     -37.972499999999997                -12.9937      20.110099999999999
   122   4     -37.854700000000001                -14.0695      20.387799999999999
   123   4     -37.711599999999997                -12.7844                 19.0594
   124   7     -37.040799999999997                -12.2081      20.901499999999999
   125   2     -37.714500000000001                -11.1211      21.423400000000001
   126   7     -37.215899999999998                -10.2235      22.078099999999999
   127   7     -39.036999999999999                 -11.214      21.231300000000001
   128   2     -39.367800000000003                -12.2881                  20.349
   129   4                -39.7241                -11.9374      19.368600000000001
   130   4     -40.081200000000003                 -12.942      20.790700000000001
   131   2                -16.3916     -7.5078699999999996      18.788499999999999
   132   4     -17.201499999999999     -7.4257499999999999      19.521999999999998
   133   4                -16.2241     -6.5719000000000003      18.154599999999999
   134   7     -16.700299999999999     -8.6096599999999999      17.873799999999999
   135   2                -16.0121     -9.7003699999999995                 18.2834
   136   7     -16.229199999999999     -10.828200000000001      17.868300000000001
   137   7                -15.1297     -9.3848299999999991      19.222300000000001
   138   2     -15.141999999999999     -8.0068000000000001      19.555800000000001
   139   4                -14.1898     -7.5189500000000002      19.217300000000002
   140   4                -15.3248     -7.8221299999999996      20.648599999999998
   141   2     -9.6411599999999993     -3.6490800000000001      6.6534899999999997
   142   4     -9.5644200000000001     -2.9219499999999998      5.8704200000000002
   143   4                -31.9297     -3.4367100000000002                 7.39595
   144   7     -29.864799999999999     -3.7533400000000001      7.3959999999999999
   145   2     -29.643899999999999     -5.0775100000000002      7.6406799999999997
   146   7                -28.6769     -5.5328299999999997      8.2570599999999992
   147   7     -8.9872899999999998                  -5.915      6.9832599999999996
   148   2     -9.9521999999999995     -5.1617800000000003      6.1749200000000002
   149   4                -11.0101     -5.3384600000000004                 6.39893
   150   4     -9.6614100000000001     -5.3969199999999997                 5.18926
   151   2     -25.941400000000002     -9.3045299999999997                 11.4916
   152   4     -25.128399999999999     -8.5835100000000004                 11.7942
   153   4     -26.912099999999999     -9.0518099999999997                 11.8916
   154   7                -25.6112                -10.6854                 11.8841
   155   2     -25.624600000000001                -11.5642      10.801299999999999
   156   7                -25.4666     -12.761699999999999      10.915100000000001
   157   7                -25.8856                -10.8942      9.6670599999999993
   158   2     -25.980399999999999                -9.51342      9.9351099999999999
   159   4     -26.957599999999999                  12.359      9.6060300000000005
   160   4                -25.1616                 12.5886      9.4321900000000003
   161   2     -36.441299999999998     -4.0846799999999996      21.860499999999998
   162   4                 -36.814                -5.04176                 21.3491
   163   4     -36.574100000000001     -4.0175799999999997      23.007000000000001
   164   7     -37.211100000000002                -3.05972                 21.1907
   165   2                -36.4604     -1.9753499999999999                 20.9771
   166   7     -15.316000000000001    -0.92771999999999999                 20.6007
   167   7     -35.157800000000002                -2.25881                 21.2988
   168   2     -35.017499999999998     -3.6670699999999998                 21.4983
   169   4     -34.267200000000003     -3.8057300000000001                 22.2957
   170   4     -34.530200000000001     -4.0307199999999996                 20.6004
   171   2     -12.235200000000001     -5.4952100000000002                 16.0975
   172   4                -11.8973     -6.2999000000000001      16.747399999999999
   173   4                -11.5702     -5.2662899999999997      15.270300000000001
   174   7                -12.2348     -4.3892600000000002      17.014199999999999
   175   2                -13.5441     -4.0956299999999999                 17.3111
   176   7                -13.8954     -3.3321700000000001      18.206399999999999
   177   7                -14.4008     -4.7632300000000001                 16.5504
   178   2                -13.6661     -5.6635200000000001                 15.6614
   179   4                -13.9634     -5.3527800000000001      14.660299999999999
   180   4                -14.0273     -6.7269899999999998      15.771000000000001
   181   2     -21.924900000000001     -11.494400000000001                 3.57558
   182   4                -22.7636                 10.4527      2.9100000000000001
   183   4                -22.1631     -11.298999999999999      4.6014099999999996
   184   7                -20.6465                 10.8093      3.2838500000000002
   185   2     -19.646899999999999                -11.6524      3.2457799999999999
   186   7     -18.442499999999999                -11.3476      3.3210700000000002
   187   7     -20.124300000000002     -12.942600000000001      3.0199799999999999
   188   2                -21.5943     -12.918200000000001      3.0043899999999999
   189   4     -21.971299999999999                -13.6495                 3.68737
   190   4     -21.946400000000001     -13.125400000000001      23.528500000000001
   191   2     -24.215699999999998     -1.6553199999999999                  18.587
   192   4                -23.2896                 -2.0827                 19.1418
   193   4     -24.344999999999999    -0.51958099999999996      18.777699999999999
   194   7     -25.385300000000001     -2.4668299999999999      19.103999999999999
   195   2     -25.394300000000001     -3.5080900000000002                 18.3431
   196   7     -26.188600000000001     -4.4197800000000003      18.617599999999999
   197   7     -24.490300000000001     -3.5121799999999999                  17.343
   198   2                -24.1663     -2.0512800000000002      17.165199999999999
   199   4                -24.8339     -1.6106100000000001      16.427099999999999
   200   4     -23.179400000000001                -1.94939      16.739699999999999
   201   2     -23.743500000000001                -1.91109                 22.6097
   202   4     -23.424600000000002                -1.22563      23.407800000000002
   203   4                -23.9315                 -1.2981      21.694099999999999
   204   7     -25.002500000000001     -2.5239400000000001      23.080100000000002
   205   2     -25.090199999999999     -3.7814700000000001      22.589300000000001
   206   7     -26.077500000000001     -4.4415899999999997      22.661100000000001
   207   7                -23.8935     -4.1125800000000003                0.425369
   208   2                -22.8642     -3.0756899999999998     0.79366899999999996
   209   4                -22.1676     -2.9720300000000002   -0.044045800000000003
   210   4                -22.3871     -3.4911799999999999      1.7322599999999999
   211   2                -10.1586     -8.4987600000000008                 19.3765
   212   4     -10.613300000000001     -9.0096699999999998      18.526900000000001
   213   4     -9.5712899999999994     -9.1859199999999994      19.976800000000001
   214   7     -11.356199999999999     -8.0535499999999995      19.998899999999999
   215   2     -11.444000000000001     -6.7033800000000001      19.778500000000001
   216   7     -12.429399999999999     -6.1177700000000002      20.069700000000001
   217   7     -10.480499999999999     -6.2159599999999999     -2.5280399999999998
   218   2     -9.3998600000000003     -7.1965300000000001     -2.5273599999999998
   219   4     -30.296800000000001     -6.9000700000000004                -1.71993
   220   4     -8.9632100000000001     -7.0478699999999996     -3.5222099999999998
   221   2                -21.9421      12.820499999999999      13.707000000000001
   222   4     -21.509399999999999                 13.5952                 13.1435
   223   4     -22.052199999999999      13.151400000000001      14.754200000000001
   224   7     -20.870100000000001      11.728300000000001      13.867599999999999
   225   2                -21.5322                 10.5063      13.559699999999999
   226   7     -21.094000000000001      9.4255600000000008      13.777100000000001
   227   7     -22.843399999999999      10.784599999999999                 13.1318
   228   2     -23.159800000000001                 12.1553                 13.0573
   229   4     -24.058499999999999                 12.2827                 13.6214
   230   4     -23.209399999999999      12.428800000000001      11.974299999999999
   231   2     -37.926600000000001      8.3645499999999995      15.494899999999999
   232   4     -38.001199999999997      9.4168699999999994      15.841799999999999
   233   4                -37.7485      7.7671900000000003                 16.4208
   234   7     -36.609900000000003      8.3322199999999995                 14.6828
   235   2     -36.837299999999999      7.2939800000000004                  13.807
   236   7     -14.474399999999999      6.7708399999999997      13.079599999999999
   237   7     -38.166400000000003      6.9574299999999996                 13.6342
   238   2     -38.997199999999999      7.7142299999999997      14.614699999999999
   239   4                -39.7361      7.0532199999999996                 15.1174
   240   4     -39.600700000000003      8.4904299999999999      14.148300000000001
   241   2     -33.566800000000001     -9.9513300000000005      6.2426300000000001
   242   4     -34.138100000000001     -9.0812200000000001      5.9125300000000003
   243   4     -33.750500000000002                -10.8514      5.6803900000000001
   244   7     -33.707900000000002                 -10.013      7.6731400000000001
   245   2     -32.699800000000003                -9.26952      8.1905099999999997
   246   7     -32.718000000000004     -8.8870199999999997      9.3682099999999995
   247   7     -31.749199999999998     -8.8968100000000003      7.2935800000000004
   248   2     -32.029499999999999     -9.7033500000000004      6.0672499999999996
   249   4     -31.393699999999999                -10.6035      6.1572399999999998
   250   4     -31.786799999999999     -9.0736399999999993                 5.19076
   251   2     -25.474499999999999                 -6.0762      8.7722599999999993
   252   4     -26.460999999999999     -6.3283500000000004      9.1014400000000002
   253   4     -25.344799999999999                 -6.3807      7.8109099999999998
   254   7     -24.479500000000002     -6.6259699999999997      9.6641200000000005
   255   2     -23.887799999999999     -5.6961899999999996      10.460599999999999
   256   7     -23.142900000000001     -6.0308599999999997      11.357799999999999
   257   7     -24.276499999999999     -4.4622700000000002      10.160600000000001
   258   2                -25.1874     -4.5950300000000004      8.9002300000000005
   259   4     -24.543600000000001     -4.1308400000000001      8.1330899999999993
   260   4     -26.043099999999999     -3.9595799999999999      8.9904899999999994
   261   2                -24.1632                 10.1716      20.047000000000001
   262   4     -24.438500000000001                 10.9755      20.744499999999999
   263   4                 -23.282      9.5865200000000002      20.405999999999999
   264   7     -23.754899999999999                 10.8635                 18.8339
   265   2                -24.4651      10.431900000000001      17.752099999999999
   266   7                -24.3979      10.838900000000001      16.578399999999998
   267   7                 -25.366      9.4572699999999994      18.148800000000001
   268   2     -25.381799999999998      9.3222100000000001                 19.6081
   269   4                -25.2257      8.2849299999999992      19.895700000000001
   270   4                -26.3598      9.7096199999999993                 19.9483
   271   2                -30.9434     -7.4383800000000004                   12.81
   272   4                  -30.52     -7.1196999999999999                 11.8734
   273   4     -32.021700000000003     -7.5107699999999999                 12.7638
   274   7     -30.558299999999999     -6.3336100000000002      13.808400000000001
   275   2     -29.820499999999999     -6.9068699999999996                 14.7798
   276   7                -29.2348     -6.2361700000000004      15.631399999999999
   277   7     -29.818200000000001     -8.2827099999999998                 14.7628
   278   2     -30.392900000000001     -8.7129600000000007                 13.4313
   279   4                -31.1235     -9.5340900000000008                 13.6828
   280   4     -29.616700000000002     -9.2447099999999995                 12.8482
   281   2     -35.328499999999998      9.3740000000000006      9.7955900000000007
   282   4     -34.931600000000003                 10.4087      10.180300000000001
   283   4     -35.567999999999998      8.7407900000000005                  10.657
   284   7     -34.176200000000001                -12.8208      9.1027400000000007
   285   2     -34.475299999999997                 -12.939      7.7309000000000001
   286   7                -33.6995                -13.4809      6.9226999999999999
   287   7     -35.617400000000004     -12.495699999999999      7.4674699999999996
   288   2     -36.388800000000003      9.5737500000000004      8.6594599999999993
   289   4     -37.326900000000002                 9.03477      8.7319600000000008
   290   4     -36.584200000000003                 10.5702      8.3419299999999996
   291   2     -27.059000000000001      5.9975800000000001      5.5546600000000002
   292   4                -26.9574      6.1358300000000003      6.6509299999999998
   293   4                -27.0913      7.0291300000000003      5.1318200000000003
   294   7     -28.348099999999999      5.3365299999999998      5.2494300000000003
   295   2     -28.193300000000001      4.2874400000000001      4.3415600000000003
   296   7                -29.1067      3.6886800000000002      3.8157199999999998
   297   7     -26.906300000000002      4.0746799999999999      4.1596200000000003
   298   2     -26.037199999999999      4.9757300000000004      4.9232399999999998
   299   4     -25.316099999999999      5.4821099999999996      4.2477099999999997
   300   4     -25.369499999999999      4.4881399999999996      5.7556599999999998
   301   2     -26.188700000000001      10.145300000000001      5.4149599999999998
   302   4     -25.903700000000001      11.166499999999999      5.6700499999999998
   303   4     -26.055700000000002      9.8669100000000007                 4.37615
   304   7                -27.6431      10.130100000000001      5.6802200000000003
   305   2     -27.890899999999998      9.3380799999999997      6.7893600000000003
   306   7     -28.984100000000002      9.0563199999999995      7.2336799999999997
   307   7     -26.712700000000002      8.8925300000000007      7.3193299999999999
   308   2     -25.575700000000001      9.1428499999999993                 6.44163
   309   4     -25.299700000000001      8.2508300000000006      5.8782399999999999
   310   4                -24.8689      9.4910999999999994      7.1731299999999996
   311   2     -20.962900000000001                 -11.138      9.9090900000000008
   312   4     -21.961099999999998     -11.181900000000001      9.5035799999999995
   313   4     -20.710599999999999     -12.026899999999999                 10.5059
   314   7                -21.0749                -10.0456      10.833500000000001
   315   2     -20.434999999999999     -8.9229199999999995                 10.4602
   316   7     -20.514299999999999     -7.8170299999999999      10.995200000000001
   317   7     -19.724599999999999     -9.1809700000000003      9.2559199999999997
   318   2     -19.727499999999999     -10.666600000000001      9.0994700000000002
   319   4     -18.866499999999998                -10.9886      9.5964399999999994
   320   4     -19.647600000000001                -10.8904      8.0531400000000009
   321   2                -18.1692      4.3811299999999997     -4.6197699999999999
   322   4                -18.3491                 5.28369     -5.2657800000000003
   323   4     -17.242000000000001      4.5406700000000004     -4.0628000000000002
   324   7                -39.4908                 3.09863     -5.4247100000000001
   325   2     -40.040700000000001      2.1051500000000001     -4.7180099999999996
   326   7     -39.955800000000004                0.912138     -4.9817299999999998
   327   7     -40.646500000000003      2.5988500000000001     -3.6144599999999998
   328   2     -40.836500000000001      4.0312200000000002     -3.6469299999999998
   329   4     -40.610199999999999      4.4752299999999998     -2.6606000000000001
   330   4                -41.8827      4.1704699999999999     -3.9400900000000001
   331   2     -22.949999999999999      2.9193899999999999      16.135100000000001
   332   4     -24.088699999999999      3.1294300000000002                 16.0487
   333   4                -22.4161      3.8377400000000002      16.299600000000002
   334   7                -22.3307                 2.21062                 14.8848
   335   2     -22.004200000000001     0.94229200000000002                 15.0944
   336   7     -21.546199999999999                0.126163                  14.334
   337   7     -22.424499999999998     0.50837600000000005      16.324300000000001
   338   2     -22.743099999999998      1.6787300000000001      17.108599999999999
   339   4     -21.811399999999999                 1.80498      17.654800000000002
   340   4     -23.613700000000001      1.5628200000000001                 17.8476
   341   2     -29.992999999999999      2.9766900000000001                 11.9703
   342   4     -30.211200000000002                 3.87025                 11.3118
   343   4     -29.292000000000002      2.3274300000000001      11.491099999999999
   344   7     -31.317299999999999      2.2648700000000002                 11.8894
   345   2     -31.933399999999999      2.3452500000000001      13.084199999999999
   346   7     -33.018599999999999                 1.89201                 13.3126
   347   7     -31.131499999999999                 2.92225                 14.0192
   348   2     -29.840900000000001      3.2544400000000002                 13.4665
   349   4     -29.105699999999999                 2.54277      13.875999999999999
   350   4     -29.597000000000001      4.3051500000000003                  13.727
   351   2     -22.764900000000001     -8.6333199999999994     0.84983399999999998
   352   4     -22.998200000000001     -7.9543999999999997    0.018046900000000001
   353   4     -21.900200000000002     -9.2603899999999992     0.52946400000000005
   354   7     -23.758700000000001     -9.6189599999999995                  1.0246
   355   2     -24.661799999999999     -9.2615099999999995                 1.97431
   356   7     -25.689699999999998     -9.7885600000000004      2.2701799999999999
   357   7                -24.1755     -8.0800599999999996      2.5958600000000001
   358   2     -22.781500000000001     -7.9363900000000003      2.2447699999999999
   359   4     -22.157699999999998     -8.5383200000000006                 2.89378