(written by ASE)

915 atoms
9 atom types

0.0      21.712770568302616  xlo xhi
0.0      21.712770568302616  ylo yhi
0.0      21.712770568302616  zlo zhi

Atoms # atomic

     1   2                  14.513                 5.83026      5.2290200000000002
     2   2      14.119999999999999      4.3172699999999997      5.5002599999999999
     3   7      15.262600000000001      3.5834600000000001      5.0365000000000002
     4   2      16.180499999999999      4.4276400000000002      4.4682199999999996
     5   7      17.271699999999999      4.0506200000000003      4.0296200000000004
     6   7                 15.7173      5.7329699999999999      4.4097799999999996
     7   4                 14.7432      6.3330599999999997      6.1834699999999998
     8   4      13.803000000000001      6.3530499999999996      4.5938699999999999
     9   4                 13.2692      4.0739999999999998      4.8754099999999996
    10   4                 13.9739      4.0763600000000002      6.5686099999999996
    11   2      3.4906999999999999                 11.5671      24.065899999999999
    12   2      3.8840599999999998      12.457599999999999      25.303799999999999
    13   7      3.6455500000000001                 11.5594                 26.4267
    14   2      2.8544499999999999      10.570499999999999                  26.055
    15   7                 2.35575      9.7271900000000002      26.744700000000002
    16   7      2.5792099999999998                 10.5625      24.693100000000001
    17   4      4.3700599999999996                 11.0091      23.742000000000001
    18   4      2.9887100000000002                 12.1249      23.260899999999999
    19   4      3.2576399999999999                  13.382      25.426400000000001
    20   4      4.9303100000000004                 12.6921      25.304200000000002
    21   2      2.7251099999999999      2.4242300000000001                 15.9339
    22   2      4.0787199999999997      1.8066500000000001                 15.6317
    23   7      4.3633600000000001                 2.21055                 14.2073
    24   2      3.0572400000000002      2.3219799999999999                 13.6502
    25   7                 2.86355      2.4710100000000002                 12.4785
    26   7      2.1688100000000001      2.4605399999999999      14.651400000000001
    27   4      2.8048299999999999      3.5034100000000001      16.135200000000001
    28   4      2.0278100000000001                 1.89832      16.587900000000001
    29   4      4.0800900000000002     0.75264200000000003      15.552899999999999
    30   4      4.8774199999999999                 2.27922      16.246700000000001
    31   2      11.605399999999999    -0.28048800000000002     -1.7168699999999999
    32   2                 10.5847     0.76648300000000003     -2.2977699999999999
    33   7                 11.1488      2.0519599999999998     -2.0938300000000001
    34   2                    12.4      1.8976900000000001                -1.42835
    35   7      13.064299999999999      2.8136399999999999                 -1.0888
    36   7                 12.7126                0.570631     -1.2391799999999999
    37   4      11.981400000000001    -0.91717099999999996     -2.5361699999999998
    38   4      11.190899999999999    -0.81003700000000001    -0.83371499999999998
    39   4      9.6721900000000005     0.82430700000000001     -1.6494800000000001
    40   4      10.241199999999999     0.55470299999999995     -3.3294700000000002
    41   2      7.1185200000000002      4.9588799999999997                  15.948
    42   2      7.3011200000000001      6.0781400000000003      14.832599999999999
    43   7                  5.9192                 6.16357      14.209899999999999
    44   2      5.0605799999999999      5.7403899999999997                 15.1724
    45   7      3.8390200000000001      5.8497199999999996      15.157299999999999
    46   7      5.6997200000000001                 5.07233      16.167400000000001
    47   4      7.5873600000000003      5.1877199999999997      16.882400000000001
    48   4      7.3156800000000004                 3.96143                 15.6106
    49   4      8.0117100000000008      5.8075400000000004                 14.1007
    50   4      7.3916300000000001      7.0567299999999999                 15.3133
    51   2                 11.0276      3.0674000000000001      7.7128699999999997
    52   2                  10.539      3.4865300000000001      6.2737600000000002
    53   7      9.1263400000000008      3.3741300000000001      6.3067200000000003
    54   2      8.8051999999999992      2.5894200000000001      7.4259899999999996
    55   7      7.7528300000000003      2.0025300000000001      7.5533799999999998
    56   7      9.8177800000000008      2.4786899999999998      8.3307000000000002
    57   4                 11.2623                 3.98142      8.3408599999999993
    58   4      11.780799999999999      2.3168700000000002      7.7844699999999998
    59   4                 10.8963      2.8771200000000001      5.4969999999999999
    60   4                 10.8163      4.4786000000000001      6.0978899999999996
    61   2     -12.281499999999999     -8.7864500000000003                 11.0519
    62   2     -12.301299999999999     -8.6707099999999997      9.4681499999999996
    63   7     -10.854799999999999     -8.7965499999999999      9.1532900000000001
    64   2                 -10.318     -9.5489300000000004                 10.1564
    65   7     -9.2034400000000005                -10.0899      10.122199999999999
    66   7     -11.106299999999999     -9.5741099999999992                  11.279
    67   4                 -13.186     -9.2538900000000002                 11.5443
    68   4                -12.0244                -7.90517      11.517200000000001
    69   4     -12.583399999999999     -7.7034500000000001      9.1638300000000008
    70   4                  -12.85     -9.4876000000000005      8.8798999999999992
    71   2      10.417199999999999      25.296600000000002     -9.6221399999999999
    72   2                 11.0952      26.249300000000002     -8.6883199999999992
    73   7      12.539999999999999      26.001899999999999     -8.8689900000000002
    74   2      12.598800000000001                 24.7666     -9.5628299999999999
    75   7                 13.7074                 24.3811     -9.9166600000000003
    76   7                 11.3964                 24.2622     -9.8180200000000006
    77   4                 10.2507      25.765499999999999     -10.638999999999999
    78   4      9.4551700000000007      24.864100000000001     -9.2974899999999998
    79   4      10.726599999999999      26.090800000000002     -7.6331699999999998
    80   4      10.876899999999999                 27.3185     -8.9017199999999992
    81   2      8.0689600000000006      14.406599999999999                 6.15245
    82   2      7.2047400000000001                 15.6418      6.2634699999999999
    83   7      6.4232699999999996                 15.4526      7.4850300000000001
    84   2      6.5081800000000003      14.091799999999999      7.7881299999999998
    85   7      5.8698499999999996                 13.5243      8.6460000000000008
    86   7      7.2878499999999997      13.385300000000001      6.8706100000000001
    87   4      9.0725200000000008                 14.4115      6.6395299999999997
    88   4      8.1359300000000001                 14.1364      5.0993500000000003
    89   4      6.5073499999999997                 15.6869      5.4022500000000004
    90   4      7.6865199999999998      16.657599999999999      6.2837699999999996
    91   2    -0.71286099999999997      13.692299999999999                 3.17048
    92   2    -0.75961299999999998      14.450799999999999                 1.78084
    93   7    -0.48599599999999998      13.369199999999999     0.80160100000000001
    94   2    -0.56534799999999996      12.170500000000001      1.4471000000000001
    95   7    -0.43471700000000002                 11.0997     0.91253799999999996
    96   7    -0.62739400000000001      12.305999999999999      2.7809200000000001
    97   4     -1.6600200000000001                 13.8125                  3.6755
    98   4                0.203703      13.919499999999999      3.6633900000000001
    99   4    0.062943499999999999                 15.1233                 1.66506
   100   4     -1.7151099999999999                 14.8918      1.5418099999999999
   101   2                 1.90238      7.1184599999999998      7.2213900000000004
   102   2      1.0270699999999999      6.9377899999999997      5.9785399999999997
   103   7    -0.27404899999999999      7.1856499999999999      6.5777700000000001
   104   2    -0.17422299999999999      8.0448299999999993      7.6965899999999996
   105   7     -1.2125999999999999      8.5384399999999996      8.1282300000000003
   106   7                 1.14045      8.0235199999999995      8.1435600000000008
   107   4      2.8227500000000001      7.5536000000000003      6.8881600000000001
   108   4      1.9580599999999999                 6.27616      7.8465299999999996
   109   4      1.0042199999999999      5.9522399999999998      5.5206299999999997
   110   4                  1.2341      7.6859400000000004                 5.21366
   111   2     -6.3850300000000004                -1.38245                -1.32152
   112   2     -5.1834300000000004     -1.6331800000000001     -2.1853699999999998
   113   7     -5.3414000000000001     -3.1142599999999998     -2.4591799999999999
   114   2     -6.6550599999999998     -3.3949099999999999     -2.2516500000000002
   115   7     -7.2961499999999999     -4.4376800000000003                -2.38802
   116   7     -7.4238999999999997     -2.3108300000000002                -1.88304
   117   4     -6.8080600000000002    -0.32533400000000001                -1.29315
   118   4                -6.28043                -1.70475    -0.28221299999999999
   119   4     -4.2752299999999996     -1.3818299999999999     -1.6630499999999999
   120   4     -5.1785100000000002     -1.0782099999999999     -3.1455899999999999
   121   2      23.065999999999999      16.503399999999999      5.0467300000000002
   122   2                 24.0686                 15.7644      5.8996899999999997
   123   7      25.278099999999998      16.453800000000001      5.6344599999999998
   124   2      25.006900000000002      17.643699999999999      5.0043800000000003
   125   7                 25.6829      18.654699999999998      4.8076699999999999
   126   7                 23.6814      17.781300000000002      4.8040200000000004
   127   4      22.097000000000001      16.718800000000002      5.5749599999999999
   128   4                 22.8459      16.022400000000001      4.0536500000000002
   129   4      24.133400000000002      14.772399999999999      5.5279499999999997
   130   4      23.764099999999999      15.712400000000001      6.9167699999999996
   131   2      12.017099999999999      20.874600000000001                  15.731
   132   2                 12.4049      19.812799999999999      16.723600000000001
   133   7      13.100899999999999      18.793099999999999                 15.8644
   134   2                 13.2011                 19.1782      14.672700000000001
   135   7      13.568199999999999      18.585000000000001      13.648199999999999
   136   7                 12.7598      20.505800000000001                 14.5458
   137   4                 12.3767      21.891999999999999      16.097300000000001
   138   4                 10.9406                 20.9575                 15.5471
   139   4                 11.6023      19.245899999999999      17.191600000000001
   140   4                 13.1463      20.148199999999999      17.437200000000001
   141   2                 23.3964      25.057600000000001      5.5995699999999999
   142   2      22.728899999999999      23.819600000000001      6.2185899999999998
   143   7      21.343599999999999      23.854700000000001      5.7374000000000001
   144   2      21.176200000000001                 25.0427      5.0111499999999998
   145   7      20.074000000000002      25.449000000000002      4.6830800000000004
   146   7      22.363099999999999                 25.7087      4.7677100000000001
   147   4      24.212700000000002      24.865600000000001                 4.89072
   148   4      23.576000000000001      25.783000000000001      6.3530800000000003
   149   4      22.706499999999998      23.774699999999999      7.3159900000000002
   150   4      23.090699999999998      22.819299999999998      5.9427300000000001
   151   2     -5.4116900000000001      17.479500000000002     -7.1314500000000001
   152   2                -4.24024                 16.5792     -6.5460200000000004
   153   7     -3.4275899999999999                 17.5137     -5.8210100000000002
   154   2     -4.0648799999999996                 18.6919     -5.7141599999999997
   155   7                 -3.7582      19.647600000000001     -5.0152999999999999
   156   7     -5.2271900000000002      18.713799999999999     -6.3793600000000001
   157   4     -6.4169400000000003                 16.9695                -6.75962
   158   4     -5.5153100000000004                 17.6813     -8.2362300000000008
   159   4     -3.6181199999999998                 16.0962     -7.3290300000000004
   160   4     -4.6272399999999996      15.828099999999999     -5.8692700000000002
   161   2                -1.93991      12.365500000000001                  14.907
   162   2                -0.44827                 12.4536                  14.836
   163   7    -0.22713900000000001                 11.9191                 13.4251
   164   2     -1.2046600000000001      10.997999999999999                 13.1816
   165   7     -1.2714099999999999                 10.2065                 12.2624
   166   7     -2.0919099999999999                 11.0677                 14.2057
   167   4     -2.4397899999999999                 13.1953                 14.4079
   168   4                -2.27867      12.212999999999999      15.947800000000001
   169   4    -0.17830599999999999                 11.7471                 15.6271
   170   4               -0.123613                 13.5032      14.873699999999999
   171   2      19.718699999999998      25.037299999999998                 22.0185
   172   2      20.815300000000001                 23.9405      22.018899999999999
   173   7      20.202500000000001      23.013100000000001                 23.0562
   174   2      19.357600000000001      23.742599999999999                 23.8751
   175   7      18.854700000000001      23.296700000000001      24.893899999999999
   176   7      19.055199999999999                 24.9725                 23.3935
   177   4      18.865200000000002      24.965299999999999      21.365300000000001
   178   4      20.173400000000001      26.042899999999999                 21.9132
   179   4      21.750699999999998      24.390999999999998      22.462900000000001
   180   4                   20.93                 23.3827      21.073899999999998
   181   2      15.210699999999999      12.008100000000001                 14.5565
   182   2                 16.6935                  11.818      14.609299999999999
   183   7                 17.2318      12.991199999999999                  13.914
   184   2      16.226800000000001                 13.8254                 13.6843
   185   7      16.374400000000001                 14.9373      13.252599999999999
   186   7                 14.9754                 13.3329                  13.972
   187   4      14.805400000000001                 11.9808                 15.4977
   188   4                 14.7118      11.262499999999999      13.853999999999999
   189   4      17.113700000000001      10.911799999999999      14.141400000000001
   190   4      16.983899999999998      11.976800000000001      15.633699999999999
   191   2      15.920299999999999                 25.1373      18.702200000000001
   192   2                 15.8567                 25.4465      17.244599999999998
   193   7                 14.7281      24.601400000000002      16.778300000000002
   194   2                 14.7422      23.488399999999999      17.621600000000001
   195   7                 13.9923                 22.4968                 17.4482
   196   7                 15.5374                 23.6752                 18.6798
   197   4                 15.1959                 25.5426      19.348700000000001
   198   4                 16.9937      25.241800000000001                 19.1264
   199   4      16.761600000000001      25.136099999999999                 16.6753
   200   4                 15.4733      26.441800000000001      17.119700000000002
   201   2                 15.4375      13.718299999999999                 21.2197
   202   2                  16.131                  14.148      22.549399999999999
   203   7      17.567299999999999      14.403600000000001      22.100100000000001
   204   2      17.739100000000001      13.645300000000001      21.016400000000001
   205   7                 18.7681      13.281499999999999      20.509599999999999
   206   7      16.570599999999999                 12.9214                  20.686
   207   4                 15.1883      14.515700000000001      20.538399999999999
   208   4                 14.5534      13.042899999999999                 21.3584
   209   4      16.222100000000001                 13.2776      23.226099999999999
   210   4      15.730600000000001      15.020200000000001      23.097100000000001
   211   2      18.574999999999999      16.442599999999999                 18.8569
   212   2      19.872699999999998                 15.7606      18.319700000000001
   213   7                 19.4893      14.495699999999999                 17.8201
   214   2                 18.0518                 14.3825                 17.8889
   215   7      17.514800000000001      13.364800000000001      17.616199999999999
   216   7                  17.462                 15.4742                 18.3155
   217   4      18.376999999999999                 17.5489                 18.5486
   218   4      18.424399999999999      16.385100000000001      19.918900000000001
   219   4                 20.6403      15.594200000000001      19.116399999999999
   220   4      20.264600000000002      16.326000000000001      17.518999999999998
   221   2     -2.7433800000000002      17.843800000000002      5.5146800000000002
   222   2                -1.60826      18.811299999999999      5.0242699999999996
   223   7     -2.1633100000000001                 20.1631      5.1886599999999996
   224   2     -3.4777999999999998      20.075299999999999      5.7172499999999999
   225   7     -4.1882999999999999      21.031199999999998      5.9296699999999998
   226   7     -3.8704000000000001      18.761199999999999      5.7154999999999996
   227   4     -2.5759599999999998      17.265699999999999      6.4293399999999998
   228   4     -3.0379900000000002      17.228300000000001      4.6687399999999997
   229   4                -1.60368      18.721399999999999                 3.90279
   230   4    -0.68448799999999999                 18.6892      5.5311199999999996
   231   2      12.811400000000001      16.367799999999999      21.920500000000001
   232   2      11.605499999999999      16.814599999999999                  22.744
   233   7                  10.776                 15.6638      22.810600000000001
   234   2                 11.4147                 14.6287      22.250499999999999
   235   7                 10.8908      13.518800000000001      22.196100000000001
   236   7                 12.6289      14.929500000000001      21.764700000000001
   237   4      13.801299999999999      16.565200000000001      22.400099999999998
   238   4      12.726699999999999      16.761199999999999                 20.9603
   239   4                 11.1608      17.615500000000001      22.122499999999999
   240   4      11.745799999999999                 17.2193      23.779299999999999
   241   2      6.1704999999999997                 21.7685                 20.1663
   242   2      5.9095700000000004      22.061599999999999      18.688800000000001
   243   7      4.5392799999999998      22.749700000000001      18.734500000000001
   244   2      3.9572400000000001                 22.3261                 19.8704
   245   7      2.9232800000000001                 22.6997      20.312200000000001
   246   7      4.8084899999999999                 21.4636      20.574300000000001
   247   4      6.4514500000000004      22.603899999999999      20.776700000000002
   248   4                 6.81046      20.939599999999999      20.395600000000002
   249   4      5.7391699999999997                 21.0762      18.182500000000001
   250   4      6.6235600000000003      22.698599999999999      18.171500000000002
   251   2      19.654199999999999                 19.4634                 1.32996
   252   2                 20.0166      17.938400000000001      1.2118100000000001
   253   7                  20.238      17.853899999999999               -0.201569
   254   2      19.994599999999998      18.994900000000001               -0.861066
   255   7      20.131399999999999      19.149999999999999                -2.01877
   256   7                 19.5139      19.968800000000002  -0.0092435199999999999
   257   4      20.471900000000002      20.084199999999999                 1.82927
   258   4      18.683700000000002      19.524000000000001      1.8301499999999999
   259   4      19.145399999999999                 17.2239      1.4451700000000001
   260   4      20.848700000000001      17.775099999999998      1.8530199999999999
   261   2     0.91882900000000001                 13.1805     -3.9298600000000001
   262   2     0.67223900000000003      13.413600000000001     -2.3807499999999999
   263   7                 1.52491                 12.2913                -1.82219
   264   2      2.0039899999999999      11.480700000000001     -2.7781899999999999
   265   7                 2.50291                 10.4246     -2.6024699999999998
   266   7      1.6506400000000001      11.933999999999999     -4.0216599999999998
   267   4      1.4188400000000001                 14.0418     -4.3423499999999997
   268   4               -0.102508                 12.9588     -4.3310500000000003
   269   4               -0.306703                 13.3179     -1.9449399999999999
   270   4      1.1519999999999999                 14.2982     -1.9194500000000001
   271   2      6.4422800000000002      10.004099999999999      9.2334200000000006
   272   2                 7.47105      9.6314600000000006      10.318300000000001
   273   7                 7.44008      8.1259599999999992                  10.276
   274   2      6.8335600000000003      7.7507999999999999      9.1209500000000006
   275   7      6.7529899999999996      6.5741199999999997      8.7994299999999992
   276   7      6.3256500000000004      8.8040099999999999      8.4374900000000004
   277   4      6.6464299999999996                 10.8086      8.4807400000000008
   278   4      5.5740100000000004      10.247999999999999      9.7815999999999992
   279   4      7.1998699999999998      9.9747599999999998                  11.375
   280   4      8.5590899999999994      9.9254800000000003      10.028499999999999
   281   2      7.2586899999999996      4.4585299999999997                 11.5192
   282   2      5.8720100000000004      3.8977200000000001                 12.0647
   283   7      5.8156400000000001      2.5070600000000001                 11.6187
   284   2      7.0071099999999999                 2.21807      11.011699999999999
   285   7      7.3798000000000004      1.0764499999999999      10.766999999999999
   286   7      7.7275900000000002      3.3225099999999999                 10.7561
   287   4      8.0237499999999997      4.7061999999999999      12.283899999999999
   288   4      7.1854500000000003                  5.2279      10.817299999999999
   289   4      4.8897500000000003      4.3079400000000003                 11.7469
   290   4      5.8401800000000001                 3.82721                 13.1516
   291   2      16.151800000000001      4.2557099999999997                 10.3589
   292   2                 15.1897                 3.81359      9.2263199999999994
   293   7                 14.6806                 5.13483      8.6934500000000003
   294   2                 15.0352      6.1321700000000003      9.6035000000000004
   295   7      14.632999999999999      7.2887599999999999      9.7190799999999999
   296   7                 15.9857      5.6586999999999996      10.470000000000001
   297   4      17.187999999999999      4.0207600000000001      10.078799999999999
   298   4      15.977600000000001      3.8097799999999999                  11.385
   299   4      14.361700000000001      3.2909799999999998      9.7136099999999992
   300   4      15.616300000000001                 3.27325      8.3870500000000003
   301   2      21.414200000000001      9.1870700000000003      3.6499100000000002
   302   2      20.817799999999998      10.007400000000001      4.8266600000000004
   303   7                 19.6539      9.1617599999999992                 5.25251
   304   2      19.557099999999998      8.1094200000000001      4.3656499999999996
   305   7                 18.7469                 7.21014      4.5581100000000001
   306   7                 20.4985      8.0626899999999999                 3.45573
   307   4                 22.5001      8.8045600000000004      3.7503000000000002
   308   4      21.404199999999999      9.7593700000000005      2.6339100000000002
   309   4                 20.3994                  11.009      4.6510999999999996
   310   4      21.473700000000001      10.030799999999999      5.6979199999999999
   311   2    -0.72748999999999997      18.020399999999999      13.935600000000001
   312   2     0.74294199999999999      18.554200000000002      14.067399999999999
   313   7      1.3720699999999999                 17.6433      15.031000000000001
   314   2                0.551118      16.537600000000001                 15.1576
   315   7     0.88181200000000004                 15.5206                 15.7591
   316   7    -0.63430799999999998      16.623899999999999                 14.4879
   317   4                -1.06097                 17.8491      12.896699999999999
   318   4     -1.5132300000000001      18.633700000000001                 14.3748
   319   4     0.83987800000000001      19.514600000000002                 14.5946
   320   4      1.3456699999999999      18.689800000000002                 13.1061
   321   2      12.278499999999999     -6.6640600000000001      18.203800000000001
   322   2                 12.7408     -6.9551800000000004      16.767199999999999
   323   7      13.821400000000001     -7.9606399999999997      16.997499999999999
   324   2                 13.6631     -8.4770800000000008      18.258099999999999
   325   7      14.297599999999999                -9.49512                 18.5365
   326   7      12.832100000000001     -7.8288700000000002                 19.0214
   327   4      11.196300000000001     -6.6936900000000001      18.283200000000001
   328   4      12.719799999999999     -5.7263200000000003      18.595500000000001
   329   4      13.194900000000001     -6.1153399999999998                 16.2607
   330   4                 11.8813     -7.3223900000000004                 16.0929
   331   2      16.037099999999999      21.499600000000001      14.676500000000001
   332   2                 15.2918      22.050599999999999      13.356199999999999
   333   7      16.038399999999999      23.328700000000001                 13.1043
   334   2                 16.6584      23.684899999999999      14.257899999999999
   335   7      17.314900000000002                 24.7334      14.389200000000001
   336   7      16.585100000000001                 22.7288      15.225899999999999
   337   4      16.811800000000002      20.820699999999999      14.337199999999999
   338   4                 15.3873      21.085799999999999                 15.4185
   339   4                 14.2667      22.253799999999998                 13.5282
   340   4                 15.3924                 21.4605      12.450900000000001
   341   2                 21.0914    -0.44986799999999999                 17.3781
   342   2      21.420999999999999     0.37388399999999999                 16.1143
   343   7      20.657900000000001                 1.59151      16.266200000000001
   344   2                 20.0197      1.5624899999999999                 17.5307
   345   7                 19.3734      2.4289999999999998      18.073799999999999
   346   7      20.190899999999999     0.36169699999999999      18.047699999999999
   347   4      21.990100000000002    -0.73267099999999996      18.008400000000002
   348   4                 20.4879                -1.34074      17.283899999999999
   349   4                 21.1677    -0.20446800000000001      15.208600000000001
   350   4      22.453499999999998     0.67697300000000005                 16.0367
   351   2      6.3225100000000003      9.4300700000000006      4.1241599999999998
   352   2      7.6307799999999997      8.7665500000000005                 3.64066
   353   7      8.6223700000000001      9.2217500000000001      4.5818300000000001
   354   2      8.0615000000000006      9.7860700000000005      5.6028399999999996
   355   7      8.6560699999999997                 10.1029      6.6060299999999996
   356   7      6.6968899999999998                 9.91662      5.4276900000000001
   357   4      5.5152099999999997      8.7108299999999996      4.2905199999999999
   358   4      5.9452699999999998      10.322699999999999      3.5364300000000002
   359   4      7.9681199999999999      9.1958599999999997      2.6887099999999999