(written by ASE)

888 atoms
9 atom types

0.0      21.553999999999998  xlo xhi
0.0      21.553999999999998  ylo yhi
0.0                  21.544  zlo zhi

Atoms # atomic

     1   2     -33.851500000000001     -11.697800000000001      20.945499999999999
     2   4     -34.795299999999997                -11.1356      21.148399999999999
     3   4     -34.123399999999997     -12.654400000000001      21.397400000000001
     4   7     -32.728999999999999     -11.293699999999999                 21.7761
     5   2                -31.7864                -10.7971      20.906500000000001
     6   7     -30.751100000000001                -10.2567                 21.2074
     7   7     -32.064100000000003                -11.1092      19.620899999999999
     8   2     -33.298900000000003     -11.848599999999999      19.504000000000001
     9   4                -32.9467                -12.8512      19.294799999999999
    10   4     -34.048099999999998     -11.478999999999999      18.740300000000001
    11   2     -25.553100000000001     -6.1010400000000002      5.2158800000000003
    12   4                -24.8215     -6.8285299999999998      4.8910600000000004
    13   4     -25.038599999999999      16.174399999999999      5.8864599999999996
    14   7     -26.558599999999998                -6.81874                 6.16249
    15   2     -27.790299999999998                -6.71509      5.5910900000000003
    16   7                -28.8186     -7.2144599999999999      5.9872699999999996
    17   7     -27.726900000000001     -6.0835900000000001      4.3482000000000003
    18   2     -26.437100000000001     -5.5458499999999997      4.0579700000000001
    19   4     -26.581099999999999     -4.4393399999999996      3.9947400000000002
    20   4     -26.069800000000001     -5.8102200000000002      3.0679400000000001
    21   2     -25.840900000000001     -1.8417600000000001      2.3080500000000002
    22   4     -26.542999999999999                -1.99434                 1.47403
    23   4                -25.1572     -2.6636000000000002      2.2636400000000001
    24   7                -26.5288                -1.94983      3.5846200000000001
    25   2                -26.9695    -0.70267400000000002      3.9444400000000002
    26   7     -27.776599999999998    -0.53122499999999995      4.8384900000000002
    27   7     -26.227399999999999     0.25091200000000002      3.2874599999999998
    28   2     -25.259899999999998    -0.44484600000000002      2.4202300000000001
    29   4     -24.304600000000001    -0.46645900000000001      2.8559899999999998
    30   4                -25.3673               0.0335967                 1.44709
    31   2                -15.3156                 2.76945     -1.6382399999999999
    32   4     -16.078099999999999      2.9972799999999999    -0.91503100000000004
    33   4                -14.2904      2.8483200000000002     -1.2515000000000001
    34   7                 -15.439      3.6984699999999999                -2.75332
    35   2                -15.2423                 2.99126     -3.8955700000000002
    36   7                -15.0783                 3.50264     -4.9817799999999997
    37   7                  -15.24      1.6422600000000001                -3.66919
    38   2                -15.6029      1.4483299999999999     -2.3077800000000002
    39   4                -15.0458                0.582318                -1.96454
    40   4     -16.652000000000001                   1.234     -2.2650999999999999
    41   2     -21.355499999999999     -6.4930099999999999      18.323599999999999
    42   4     -20.822600000000001     -5.6853899999999999      17.851900000000001
    43   4                -20.8233     -7.4137300000000002      17.999700000000001
    44   7                -22.7194     -6.5237699999999998      17.694600000000001
    45   2     -23.657800000000002     -6.2049500000000002      18.568300000000001
    46   7                -24.8322     -6.1993400000000003      18.281300000000002
    47   7     -23.124300000000002     -5.8832300000000002      19.732399999999998
    48   2     -21.726900000000001                -6.27644      19.832100000000001
    49   4     -21.594000000000001                -7.09884      20.501200000000001
    50   4     -21.191700000000001     -5.3244800000000003      20.282299999999999
    51   2     -18.625900000000001                 10.6113      14.018599999999999
    52   4     -18.242999999999999      11.351699999999999      14.843500000000001
    53   4                -19.5181                 10.9672                 13.5785
    54   7                -18.8613                -12.2606                 14.7265
    55   2     -18.342300000000002     -13.238300000000001      13.884600000000001
    56   7     -18.494299999999999                -14.4513                 14.0397
    57   7     -17.674700000000001                 8.85623      12.793900000000001
    58   2     -17.525700000000001      10.258599999999999      13.004099999999999
    59   4     -17.775099999999998                  10.794      12.036799999999999
    60   4     -16.509899999999998                 10.4285                  13.381
    61   2     -18.682200000000002     -2.8300200000000002      17.520800000000001
    62   4                -19.1784     -3.2753199999999998                 16.6615
    63   4                -17.5703     -2.7745500000000001      17.430399999999999
    64   7     -19.073599999999999     -3.4141900000000001                 18.8001
    65   2     -19.248899999999999     -2.3881000000000001      19.717400000000001
    66   7     -19.211099999999998                -2.52725                 20.9026
    67   7     -19.401299999999999     -1.1685399999999999      19.120999999999999
    68   2     -19.366399999999999                -1.37066      17.654399999999999
    69   4                -18.8324    -0.52483599999999997      17.189699999999998
    70   4     -20.423400000000001     -1.5138400000000001      17.372199999999999
    71   2     -27.969999999999999                  8.1753     -2.2763100000000001
    72   4     -28.348700000000001      8.8676399999999997                -1.50292
    73   4                -27.0261      8.3826599999999996     -2.8253400000000002
    74   7     -29.094100000000001      8.2574400000000008     -3.2919999999999998
    75   2     -29.627500000000001     -14.505100000000001     -3.6208100000000001
    76   7     -30.628900000000002                 -14.727     -4.2671400000000004
    77   7     -28.862300000000001      6.0788399999999996     -2.9696500000000001
    78   2                -28.1615      6.6665799999999997                -1.82229
    79   4     -27.125699999999998      6.2912400000000002     -1.6742600000000001
    80   4                -28.7971      6.6291399999999996    -0.97970599999999997
    81   2     -28.758500000000002                -12.6958      9.6564300000000003
    82   4     -29.644600000000001                -13.2615      9.8864199999999993
    83   4     -27.867799999999999                -13.0753                 10.2018
    84   7     -28.951799999999999     -11.327299999999999                 10.0474
    85   2                -28.7989                -10.5336      8.9178499999999996
    86   7                -28.9572     -9.3376699999999992      8.9467599999999994
    87   7                -28.5425                -11.2577      7.8233100000000002
    88   2     -28.440100000000001     -12.664899999999999      8.1427300000000002
    89   4     -27.401700000000002                 -12.872      7.9575300000000002
    90   4     -29.199100000000001     -13.284599999999999      7.7379300000000004
    91   2     -18.989699999999999     -9.3869699999999998      22.555199999999999
    92   4                -19.5092                -10.2651                 22.0962
    93   4     -19.029900000000001     -9.4199000000000002      23.654800000000002
    94   7                -19.6127     -8.1591100000000001      22.076599999999999
    95   2     -18.660399999999999     -7.2076099999999999                 22.0136
    96   7     -18.921099999999999                -6.08223      21.675599999999999
    97   7     -17.435600000000001     -7.7285500000000003      22.370799999999999
    98   2                -17.5517     -9.1847399999999997                 22.2134
    99   4     -16.811399999999999     -9.6616499999999998      22.878399999999999
   100   4     -17.381399999999999     -9.4482199999999992      21.173999999999999
   101   2     -18.976600000000001     -4.4675200000000004      9.3724799999999995
   102   4     -18.222000000000001     -4.2846099999999998      10.134499999999999
   103   4                -19.1358     -5.5567299999999999      9.4766600000000007
   104   7     -18.489100000000001     -4.2084599999999996      8.0559100000000008
   105   2     -19.178000000000001     -3.1628599999999998                 7.53566
   106   7     -18.837599999999998     -2.7750599999999999      6.4572000000000003
   107   7                -20.0763     -2.6935899999999999      8.3744099999999992
   108   2     -20.242599999999999                -3.58263      9.5544899999999995
   109   4     -21.174700000000001     -4.1711299999999998      9.3244500000000006
   110   4                -20.1845     -3.0238299999999998      10.474299999999999
   111   2                -25.9514      6.6828500000000002     -5.5740999999999996
   112   4                -25.8188      7.2647000000000004                 15.1394
   113   4                -26.8978      7.0160900000000002                -5.10494
   114   7     -24.807099999999998                 6.90707     -4.6825700000000001
   115   2     -24.071100000000001      5.7543600000000001     -4.6138700000000004
   116   7                -22.9602      5.8521799999999997     -4.1138500000000002
   117   7     -24.542000000000002      4.7361399999999998     -5.3029200000000003
   118   2     -25.845800000000001      5.1892899999999997                -5.86876
   119   4     -26.556899999999999      4.7020499999999998     -5.1874500000000001
   120   4                -25.9209      4.7750199999999996                 14.6835
   121   2     -38.341500000000003                -13.1502                 22.2727
   122   4                 -39.439     -13.333299999999999      22.344899999999999
   123   4     -37.989800000000002                -12.9971                 23.3384
   124   7                -38.1464     -11.960100000000001      21.472000000000001
   125   2     -37.097700000000003                -12.2622      20.631599999999999
   126   7     -36.621200000000002                -11.4975      19.813099999999999
   127   7     -36.515999999999998     -13.434799999999999                 20.8612
   128   2     -37.518799999999999     -14.239699999999999      21.479199999999999
   129   4     -37.068100000000001     -14.988899999999999      22.077300000000001
   130   4     -38.043199999999999     -14.876200000000001      20.709199999999999
   131   2     -15.926500000000001     -8.4318600000000004      17.552199999999999
   132   4     -15.492699999999999     -7.7529899999999996                 16.7789
   133   4     -15.144299999999999     -9.1829599999999996      17.924199999999999
   134   7                -17.0077     -9.2774199999999993      16.959299999999999
   135   2     -18.138999999999999     -9.1320300000000003      17.653500000000001
   136   7                -19.2301     -9.6016700000000004                 17.3977
   137   7     -17.942299999999999     -8.3681300000000007      18.780999999999999
   138   2     -16.650500000000001     -7.7063100000000002                 18.6267
   139   4                -16.1553     -7.6893700000000003      19.597899999999999
   140   4                -16.7318                -6.67171                 18.3416
   141   2     -8.4809900000000003     -4.0438000000000001      5.0065400000000002
   142   4     -8.0643899999999995     -4.3354299999999997      4.0558399999999999
   143   4     -30.405200000000001     -3.0354800000000002      5.0070699999999997
   144   7     -28.966999999999999     -4.0056399999999996      5.9985400000000002
   145   2     -29.645600000000002     -4.2843099999999996      7.1501099999999997
   146   7     -29.167899999999999     -4.1783999999999999      8.2682099999999998
   147   7     -9.3312100000000004     -4.8319099999999997      7.0053200000000002
   148   2     -9.5282699999999991                -4.96197      5.6118800000000002
   149   4     -10.553599999999999     -4.5396200000000002      5.4232300000000002
   150   4     -9.3789400000000001     -5.9692499999999997      5.2717799999999997
   151   2     -25.780200000000001     -11.222200000000001                 12.3574
   152   4     -25.773299999999999                -11.9078                  11.461
   153   4                -24.7974     -10.785399999999999                 12.5814
   154   7                -26.0261                -12.0929      13.517300000000001
   155   2     -27.292400000000001                -11.9315                 13.9216
   156   7     -27.836200000000002                -12.6722                 14.7522
   157   7                -27.8902     -10.939399999999999      13.241300000000001
   158   2     -26.872199999999999                -10.2333                 12.4056
   159   4     -26.521000000000001      12.202299999999999                 12.9848
   160   4     -27.314399999999999      11.638999999999999      11.433199999999999
   161   2     -35.828299999999999     -3.7397999999999998      18.588699999999999
   162   4     -35.143799999999999     -4.5466100000000003                 18.4894
   163   4     -36.178699999999999     -3.4908000000000001                 17.5093
   164   7     -35.023600000000002     -2.6895500000000001      19.188300000000002
   165   2     -35.779499999999999     -2.1204000000000001      20.151700000000002
   166   7                 -13.955                -1.08507      20.723299999999998
   167   7     -36.992899999999999                 -2.7763      20.331499999999998
   168   2     -36.897500000000001     -4.0107600000000003                 19.5596
   169   4     -37.871699999999997                -4.33066      19.150500000000001
   170   4     -36.717300000000002     -4.8241399999999999                 20.3371
   171   2     -12.206200000000001     -6.4001799999999998                  15.545
   172   4                -12.8636     -6.9386700000000001      16.304500000000001
   173   4                -11.1417     -6.6274600000000001      15.819699999999999
   174   7                -12.3217     -5.0094799999999999      15.815300000000001
   175   2     -12.341799999999999     -4.3807400000000003      14.576599999999999
   176   7     -12.207800000000001     -3.2002899999999999      14.469900000000001
   177   7                -12.5465     -5.2244900000000003      13.527699999999999
   178   2                -12.5611     -6.6643299999999996      14.067600000000001
   179   4                -11.9041     -7.4099300000000001      13.502599999999999
   180   4                 -13.565     -7.0496299999999996      13.995900000000001
   181   2     -22.116199999999999     -13.275399999999999      5.2812900000000003
   182   4     -22.175999999999998                  8.9352      4.4199700000000002
   183   4                 -23.119     -13.469900000000001                 5.66425
   184   7     -21.403099999999998      9.0260200000000008      6.2808000000000002
   185   2     -20.097200000000001                -12.9101      6.1806200000000002
   186   7     -19.212499999999999                -12.3827      6.7885999999999997
   187   7                -19.9419     -14.022600000000001      5.3816800000000002
   188   2     -21.240200000000002     -14.546900000000001      5.0904699999999998
   189   4     -21.510999999999999                -15.4762      5.7589899999999998
   190   4                -21.2226                -14.8697      25.593299999999999
   191   2     -25.135200000000001    -0.92476400000000003      18.764600000000002
   192   4                -24.5047   -0.062668399999999999      18.922000000000001
   193   4     -25.717199999999998    -0.83901999999999999                 17.8248
   194   7     -26.034700000000001    -0.91666999999999998      19.865100000000002
   195   2                -26.3245     -2.1975500000000001      20.199400000000001
   196   7                -27.2029                -2.52251      20.973199999999999
   197   7                -25.5152     -3.0965699999999998      19.570499999999999
   198   2                -24.5106     -2.3331599999999999                 18.7685
   199   4                -24.4343     -2.7198199999999999      17.768799999999999
   200   4     -23.550000000000001     -2.3649100000000001      19.349699999999999
   201   2     -22.232099999999999     -3.1768200000000002      22.793399999999998
   202   4     -22.680399999999999     -2.5686200000000001      23.560600000000001
   203   4     -21.421299999999999     -2.7218900000000001      22.248899999999999
   204   7                -23.3504     -3.5920899999999998                 21.8781
   205   2     -23.970199999999998     -4.6398799999999998      22.427900000000001
   206   7                -25.0961     -5.0413699999999997      22.189499999999999
   207   7     -23.199300000000001     -5.2619899999999999      1.8718999999999999
   208   2     -21.822900000000001     -4.5571200000000003                 1.86243
   209   4     -21.172799999999999     -5.1564899999999998                  1.1389
   210   4     -21.508299999999998     -4.5143000000000004                 2.96332
   211   2                -10.1768     -7.3935199999999996      20.232900000000001
   212   4     -9.5347600000000003     -8.2104900000000001      19.854399999999998
   213   4     -9.8577999999999992     -7.2783699999999998      21.256499999999999
   214   7                -11.6028     -7.9469900000000004      20.256599999999999
   215   2                -12.4434     -6.9517199999999999      19.872599999999998
   216   7     -13.695399999999999     -7.0462300000000004      19.989999999999998
   217   7     -11.710000000000001     -5.8966500000000002     -2.0947800000000001
   218   2                -10.3119                 -6.2496     -2.2168800000000002
   219   4     -31.440999999999999     -5.3266400000000003                 -1.8383
   220   4                -10.1092                -6.49756     -3.2926899999999999
   221   2                -21.9635                 13.0634      14.071400000000001
   222   4                -21.8901                  14.118                 13.7431
   223   4     -21.282699999999998      12.469799999999999                 13.4505
   224   7     -23.287299999999998                 12.4483      13.734299999999999
   225   2                -23.9863      12.291700000000001      14.882300000000001
   226   7     -25.138500000000001                 11.8324      14.943199999999999
   227   7     -23.288799999999998                 12.6189      15.983599999999999
   228   2                -21.8644      12.733000000000001      15.574999999999999
   229   4                -21.4316      11.729900000000001                  15.638
   230   4     -21.334399999999999      13.550599999999999      16.047999999999998
   231   2     -36.500799999999998      7.6272200000000003                 17.0245
   232   4     -36.101900000000001      8.5095200000000002      17.454899999999999
   233   4     -36.646999999999998      6.7459600000000002      17.610499999999998
   234   7     -35.408200000000001      7.2389599999999996                 16.0458
   235   2     -35.987699999999997      6.8959200000000003      14.871499999999999
   236   7                -13.8468      6.4941199999999997      13.880699999999999
   237   7                -37.3035                  7.2294                 14.8673
   238   2     -37.720399999999998      7.8648100000000003      16.136299999999999
   239   4     -38.534399999999998      7.3164800000000003      16.582799999999999
   240   4     -37.881100000000004      8.9246099999999995      15.949999999999999
   241   2     -33.279200000000003     -9.0339299999999998      6.2188400000000001
   242   4     -33.957099999999997     -8.6084800000000001      6.9873399999999997
   243   4                -33.8352     -8.9733099999999997      5.2619400000000001
   244   7     -32.984900000000003     -10.457700000000001      6.3621800000000004
   245   2                -31.7592     -10.764099999999999      6.0245499999999996
   246   7     -31.163900000000002                -11.7919      6.0437900000000004
   247   7     -31.060099999999998     -9.5782000000000007      5.6502400000000002
   248   2     -31.841699999999999     -8.4409299999999998      6.1120299999999999
   249   4     -31.739999999999998     -7.6442500000000004      5.3173199999999996
   250   4     -31.445599999999999     -8.0751799999999996      7.0572299999999997
   251   2     -23.389700000000001     -6.5150399999999999                 9.91709
   252   4     -23.122800000000002     -5.5274299999999998      10.147600000000001
   253   4                -22.6815     -6.8828399999999998      9.1944800000000004
   254   7     -24.640699999999999     -6.4609699999999997      9.0145199999999992
   255   2     -25.603000000000002     -7.1602600000000001      9.5786899999999999
   256   7     -26.722000000000001     -7.4165999999999999      9.1209399999999992
   257   7     -25.229700000000001     -7.6286100000000001                 10.7902
   258   2     -23.870000000000001                -7.46563      11.094799999999999
   259   4                -23.4192     -8.5066400000000009                 11.1167
   260   4     -23.858899999999998     -6.9598199999999997                 12.1182
   261   2     -24.707699999999999      10.023300000000001      17.755099999999999
   262   4     -24.048200000000001      9.9045699999999997      16.882100000000001
   263   4                -25.6799                 9.71143      17.376899999999999
   264   7     -24.765699999999999      11.374000000000001      18.164000000000001
   265   2     -24.219899999999999      11.529500000000001      19.452300000000001
   266   7                -24.2409                 12.6113                 20.0366
   267   7     -23.702999999999999      10.389200000000001                 19.9207
   268   2     -24.100000000000001      9.3121200000000002      19.002600000000001
   269   4     -24.859400000000001      8.7508700000000008      19.472100000000001
   270   4                -23.2027      8.7550500000000007                  18.805
   271   2     -29.273800000000001     -7.9068100000000001                 12.2982
   272   4     -29.728200000000001                -8.34816                 11.3499
   273   4     -28.713699999999999     -8.6342199999999991                 12.7967
   274   7     -30.317299999999999     -7.5087700000000002                 13.1633
   275   2                -30.1388     -6.2422000000000004                 13.5946
   276   7     -30.796299999999999     -5.6958900000000003      14.478300000000001
   277   7     -29.044499999999999     -5.5957499999999998                 12.8772
   278   2                -28.4984     -6.6212299999999997      12.011900000000001
   279   4     -27.382100000000001     -6.6332399999999998                 12.2303
   280   4     -28.626200000000001     -6.2827999999999999      10.991199999999999
   281   2     -34.909100000000002                 10.4595                 10.0669
   282   4     -35.547600000000003                 10.1676      10.886699999999999
   283   4     -35.469200000000001                 10.8649      9.1784499999999998
   284   7     -34.412500000000001     -12.501899999999999      9.6167300000000004
   285   2     -33.213700000000003     -12.351800000000001      9.0264000000000006
   286   7                -32.6008                -13.2628      8.4814399999999992
   287   7     -32.761200000000002                -11.0307      9.2253900000000009
   288   2     -33.521900000000002      11.194000000000001                 10.2744
   289   4     -33.507800000000003                 12.2433                 10.0236
   290   4     -33.175600000000003                 11.0443      11.351800000000001
   291   2     -26.751100000000001      7.1458700000000004                 5.29528
   292   4     -27.177099999999999      7.3442999999999996      6.2898899999999998
   293   4                -26.6005      8.1573499999999992      4.8400499999999997
   294   7     -27.569299999999998      6.2750700000000004      4.4890600000000003
   295   2     -26.854600000000001      5.0755800000000004      4.1966099999999997
   296   7     -27.306999999999999      4.1889799999999999      3.5573700000000001
   297   7                -25.6357      5.1688999999999998      4.5855199999999998
   298   2     -25.450800000000001      6.4264400000000004      5.2760100000000003
   299   4                -24.6479      6.9312899999999997      4.8099600000000002
   300   4                -25.1755      6.1734200000000001      6.3204200000000004
   301   2     -25.133199999999999      10.499499999999999      6.4397700000000002
   302   4     -26.184699999999999                 10.7348      6.2324400000000004
   303   4     -24.622900000000001                 10.2059      5.5280100000000001
   304   7                -25.0871      9.2648299999999999      7.2645099999999996
   305   2     -24.832899999999999      9.5496700000000008                 8.56372
   306   7     -24.970199999999998      8.8096599999999992      9.5231999999999992
   307   7     -24.489999999999998      10.856199999999999      8.6967599999999994
   308   2     -24.390499999999999                 11.4604      7.3638000000000003
   309   4     -23.282900000000001      11.414400000000001      7.1211599999999997
   310   4                -24.7881                 12.4848      7.4103700000000003
   311   2     -20.488700000000001     -10.867000000000001      9.8654600000000006
   312   4                -21.2851     -11.541499999999999      9.9390800000000006
   313   4     -19.601800000000001     -11.408799999999999      10.201000000000001
   314   7                -20.6648     -9.8256800000000002                  10.891
   315   2     -20.697099999999999     -8.6055899999999994                 10.2836
   316   7     -20.858899999999998     -7.5876400000000004                 10.8847
   317   7                -20.6997     -8.6898599999999995      8.9682399999999998
   318   2     -20.719799999999999     -10.113099999999999      8.5291800000000002
   319   4     -19.835000000000001     -10.130699999999999      7.8249599999999999
   320   4     -21.660799999999998                -10.4557      8.1095600000000001
   321   2     -19.911799999999999      3.8786700000000001     -4.2827200000000003
   322   4                -20.9971      3.6746300000000001     -4.2850400000000004
   323   4                -19.6615      4.9522500000000003     -4.4002499999999998
   324   7     -40.880699999999997      3.1864599999999998     -5.3993399999999996
   325   2     -39.976399999999998                 2.26173     -4.9870099999999997
   326   7     -39.441299999999998      1.4160900000000001     -5.6608499999999999
   327   7     -39.893500000000003                 2.23149     -3.5567199999999999
   328   2     -40.634399999999999      3.3434900000000001     -3.0387200000000001
   329   4                -39.8887      4.0842700000000001     -2.6514000000000002
   330   4     -41.169699999999999      2.9621200000000001                -2.19543
   331   2                -22.6966                 1.40577      16.046600000000002
   332   4                -22.1751                 2.30002      16.486699999999999
   333   4     -23.319600000000001     0.90931600000000001      16.856000000000002
   334   7                -21.4924     0.44379400000000002      15.882199999999999
   335   2                 -21.253     0.36247299999999999                 14.5565
   336   7     -20.299199999999999    -0.26215699999999997      14.032500000000001
   337   7     -22.171900000000001                 1.05735                 13.8443
   338   2     -23.255299999999998      1.5168999999999999      14.688000000000001
   339   4                -24.0441     0.73396399999999995                  14.487
   340   4     -23.700099999999999      2.4442699999999999      14.345800000000001
   341   2                -29.4772                 1.57419      11.555999999999999
   342   4     -29.760300000000001                 2.14479                 10.7057
   343   4     -28.906700000000001     0.74625799999999998                  11.238
   344   7     -30.702000000000002                 1.06036                 12.1105
   345   2     -30.842500000000001                 1.32073                 13.4224
   346   7     -31.712399999999999     0.89389600000000002      14.133900000000001
   347   7     -29.733699999999999      2.0113699999999999                 13.8675
   348   2     -28.781700000000001      2.3338999999999999      12.788500000000001
   349   4                -27.8567                  1.9028                 13.1769
   350   4     -28.615400000000001      3.4112100000000001                 12.6126
   351   2     -23.510200000000001     -9.5460100000000008      1.6334299999999999
   352   4                -23.2957     -8.5208100000000009      1.4179600000000001
   353   4     -23.331099999999999     -10.101699999999999                0.691801
   354   7     -24.913599999999999     -9.5444399999999998      2.0295399999999999
   355   2                -24.9572                -10.3338      3.1821199999999998
   356   7     -26.006699999999999     -10.580500000000001                 3.66594
   357   7                -23.7438     -10.749499999999999      3.6937600000000002
   358   2     -22.723800000000001     -10.164099999999999      2.8311799999999998
   359   4     -22.081299999999999                 -11.019      2.5407299999999999