(written by ASE)

888 atoms
9 atom types

0.0      21.553999999999998  xlo xhi
0.0      21.553999999999998  ylo yhi
0.0                  21.544  zlo zhi

Atoms # atomic

     1   2     -34.090899999999998     -12.568099999999999      20.592199999999998
     2   4                 -34.988                -12.6355      21.204899999999999
     3   4     -33.607599999999998                -13.5336      20.645499999999998
     4   7                -33.0884     -11.641999999999999      21.259499999999999
     5   2     -32.345500000000001                -11.0512      20.330500000000001
     6   7                -31.3232     -10.430400000000001      20.526700000000002
     7   7     -32.814999999999998                -11.2746      19.026599999999998
     8   2     -34.185400000000001                -11.7888      19.277899999999999
     9   4     -34.410899999999998                -12.4877      18.493099999999998
    10   4     -34.796500000000002     -10.895300000000001      19.292999999999999
    11   2                -25.6066     -6.8688599999999997      5.8507499999999997
    12   4                -25.1465     -7.8480699999999999      5.7665699999999998
    13   4     -25.198799999999999      15.308299999999999                 6.64466
    14   7     -27.046399999999998     -7.0906399999999996      6.2258800000000001
    15   2     -27.744800000000001                -7.35663      5.0067000000000004
    16   7                -28.8154     -7.8769499999999999                 5.05905
    17   7                -27.0871     -6.7671700000000001      4.0120199999999997
    18   2                -25.8461     -6.2494100000000001      4.4968500000000002
    19   4     -26.124600000000001     -5.1936900000000001                 4.58134
    20   4     -25.079899999999999     -6.3485199999999997      3.6806399999999999
    21   2     -24.718699999999998                -1.54481      3.0882499999999999
    22   4     -24.530200000000001     -2.4967600000000001      3.6266400000000001
    23   4                  -23.75     -1.0714699999999999                 2.85934
    24   7                 -25.279    -0.64453800000000006      4.0820699999999999
    25   2     -26.558199999999999               -0.227105      3.6434899999999999
    26   7     -27.380099999999999     0.23635900000000001      4.3920700000000004
    27   7     -26.695900000000002    -0.51438899999999999      2.3754599999999999
    28   2     -25.841799999999999                -1.63557      2.0118499999999999
    29   4                -25.4572     -1.5697300000000001     0.95703000000000005
    30   4     -26.395600000000002     -2.5587900000000001                 2.02121
    31   2     -17.034199999999998      2.7187199999999998                -1.59127
    32   4     -17.883500000000002      2.0398700000000001     -1.7604599999999999
    33   4     -17.132100000000001                 3.41059    -0.70684100000000005
    34   7     -16.923500000000001      3.6307999999999998     -2.7184499999999998
    35   2     -15.919700000000001      3.2375400000000001     -3.5365600000000001
    36   7                -15.6143                  3.7658     -4.5843400000000001
    37   7     -15.123900000000001      2.1983700000000002     -3.0010300000000001
    38   2                -15.7089      1.9290400000000001                -1.62914
    39   4                -14.9331                 2.26098    -0.94778799999999996
    40   4                -15.8215     0.84117299999999995                -1.45068
    41   2     -20.986999999999998                -5.93018      17.488099999999999
    42   4                -21.0459     -4.9323499999999996      17.002099999999999
    43   4     -20.462700000000002     -6.7173299999999996      16.935099999999998
    44   7     -22.473400000000002     -6.2422899999999997      17.620899999999999
    45   2     -22.913900000000002     -5.7753300000000003                 18.8566
    46   7                 -24.116     -5.6752799999999999      19.160900000000002
    47   7     -21.837800000000001     -5.3626199999999997      19.573699999999999
    48   2     -20.588000000000001     -5.8835100000000002      18.933900000000001
    49   4     -20.509499999999999                -6.99207      19.379300000000001
    50   4     -19.755500000000001     -5.2979500000000002                 19.2333
    51   2     -17.592400000000001      11.370200000000001                 14.0406
    52   4                -16.9495      11.749599999999999                 14.8847
    53   4                -18.4893      12.014099999999999                 14.1357
    54   7     -18.123100000000001                -11.5451                 14.2805
    55   2     -18.160499999999999     -12.222200000000001                 13.0914
    56   7     -18.792899999999999     -13.235300000000001      13.004899999999999
    57   7     -17.460999999999999      10.011799999999999                 12.1549
    58   2     -17.015699999999999                 11.2646      12.678000000000001
    59   4     -17.390899999999998      12.120200000000001                 12.1144
    60   4     -15.888500000000001                 11.2918      12.559200000000001
    61   2     -18.681799999999999     -2.4896600000000002      17.875499999999999
    62   4     -19.575900000000001     -2.9963099999999998      17.531700000000001
    63   4                -17.7683     -2.9853900000000002                 17.4863
    64   7     -18.632999999999999     -2.6884700000000001      19.422699999999999
    65   2     -18.737100000000002                -1.53121      20.045300000000001
    66   7     -18.823899999999998     -1.4600200000000001      21.292100000000001
    67   7                -18.7437    -0.56818100000000005      19.122800000000002
    68   2     -18.887499999999999     -1.0035700000000001                 17.7287
    69   4                  -18.25    -0.56818599999999997      16.953499999999998
    70   4     -19.908999999999999    -0.86889099999999997      17.342500000000001
    71   2                -29.2425      7.8146800000000001     -2.5224500000000001
    72   4     -29.439699999999998      8.6792300000000004     -1.8375699999999999
    73   4     -28.725899999999999      8.2301800000000007     -3.4507699999999999
    74   7     -30.451000000000001      7.2448800000000002     -3.0275599999999998
    75   2     -30.786000000000001                -15.4811     -2.3799600000000001
    76   7     -31.895299999999999     -16.008700000000001     -2.5192800000000002
    77   7     -29.810199999999998                 5.63286     -1.6619200000000001
    78   2     -28.629799999999999      6.6021900000000002     -1.7717499999999999
    79   4     -27.774100000000001      6.1321700000000003     -2.2930299999999999
    80   4     -28.239799999999999      6.7226800000000004    -0.75105599999999995
    81   2                -30.3704     -12.333299999999999      9.2829899999999999
    82   4     -30.969799999999999                -12.8462      8.4670299999999994
    83   4     -30.910599999999999     -12.511200000000001      10.266400000000001
    84   7                 -30.541     -10.849500000000001      9.1421200000000002
    85   2     -29.314399999999999                -10.2882      9.1290800000000001
    86   7                -29.1145                -9.09131      9.1675000000000004
    87   7                -28.3065                  -11.16      8.9644100000000009
    88   2                -28.8337                 -12.574      9.0941299999999998
    89   4                -28.1812                -12.9337      9.8497900000000005
    90   4     -28.466799999999999                -13.0671      8.1661300000000008
    91   2                -18.7087     -9.9077699999999993      22.413599999999999
    92   4     -18.798300000000001                -10.4518      21.471800000000002
    93   4                -19.0215                -10.5718                 23.2532
    94   7     -19.515999999999998                -8.72654      22.332599999999999
    95   2     -18.732500000000002     -7.6577200000000003      22.020600000000002
    96   7                -19.0365     -6.4631400000000001      21.886900000000001
    97   7     -17.386099999999999     -8.0424000000000007                 21.9802
    98   2                -17.3156     -9.3756500000000003      22.557200000000002
    99   4     -16.994499999999999     -9.2114799999999999      23.621500000000001
   100   4     -16.523900000000001     -9.8684600000000007      22.004100000000001
   101   2     -18.262699999999999     -4.4915200000000004      7.7637700000000001
   102   4                -17.2074     -4.3872600000000004      7.9361800000000002
   103   4                -18.3902     -5.1229300000000002      6.7975199999999996
   104   7     -19.022600000000001                -3.25848                 7.69184
   105   2     -19.937999999999999                -3.17502                 8.66568
   106   7     -20.784099999999999     -2.3177400000000001      8.7927900000000001
   107   7     -19.743400000000001                -4.21333      9.5210500000000007
   108   2     -18.728300000000001     -5.2209300000000001      9.0458800000000004
   109   4     -19.212800000000001     -6.2527100000000004      9.0203799999999994
   110   4     -17.869900000000001     -5.1544100000000004      9.6742000000000008
   111   2     -26.326699999999999      6.4350699999999996     -5.7062999999999997
   112   4     -27.076499999999999      7.1812699999999996                  15.631
   113   4                -26.8154      5.5241899999999999     -5.3133100000000004
   114   7                 -25.398      6.7412599999999996     -4.5625299999999998
   115   2     -24.243500000000001      6.0883900000000004     -4.7857200000000004
   116   7     -23.244499999999999      6.1886599999999996     -4.1431500000000003
   117   7     -24.182200000000002      5.5316900000000002                -6.02196
   118   2     -25.364100000000001      5.9144300000000003     -6.8093300000000001
   119   4                -25.7728      5.0992199999999999     -7.4015599999999999
   120   4                -24.9681      6.6764400000000004                 14.1282
   121   2     -38.528599999999997                -13.7745      22.215399999999999
   122   4     -39.470799999999997                -14.3079      22.257200000000001
   123   4     -38.027299999999997                -13.4727      23.183499999999999
   124   7     -38.642499999999998                -12.4977      21.509899999999998
   125   2     -38.109999999999999                -12.5631                 20.3203
   126   7                -38.3414     -11.729900000000001      19.447700000000001
   127   7     -37.247900000000001     -13.576599999999999      20.200700000000001
   128   2     -37.500999999999998                -14.5024      21.327200000000001
   129   4     -36.616399999999999     -14.864699999999999                 21.8447
   130   4     -38.066499999999998     -15.391400000000001      20.943899999999999
   131   2     -15.832100000000001     -7.7129599999999998      17.160799999999998
   132   4     -15.398199999999999     -6.8188300000000002                 16.6142
   133   4     -15.126799999999999     -8.6391100000000005      17.184200000000001
   134   7     -17.101700000000001     -8.1375799999999998                 16.4665
   135   2     -18.005600000000001     -8.5098900000000004                 17.4634
   136   7     -19.102499999999999     -8.9656800000000008      17.194299999999998
   137   7                -17.4724     -8.3270599999999995                 18.6751
   138   2     -16.341699999999999     -7.4319300000000004                 18.5883
   139   4     -15.617900000000001     -7.6629399999999999      19.368200000000002
   140   4     -16.687000000000001     -6.4132999999999996      18.664899999999999
   141   2     -8.9801000000000002     -4.2186700000000004      4.5685399999999996
   142   4     -8.7811699999999995     -4.3700900000000003      3.4899800000000001
   143   4                -31.2347     -3.3520300000000001      4.6162999999999998
   144   7     -29.332000000000001     -3.9050199999999999      5.3314700000000004
   145   2                -29.3095     -4.5677700000000003      6.5027100000000004
   146   7     -28.452000000000002     -4.3989399999999996      7.3686199999999999
   147   7     -8.9060900000000007     -5.3809899999999997      6.5812299999999997
   148   2     -9.5441000000000003     -5.4542099999999998      5.2504099999999996
   149   4                -10.6267     -5.5011900000000002      5.4265600000000003
   150   4     -9.2095699999999994     -6.3151599999999997      4.7043100000000004
   151   2     -26.121600000000001                -12.0161      12.951599999999999
   152   4                 -25.855                -12.9282                 12.3673
   153   4     -25.278700000000001                -11.3828                 13.1938
   154   7                -26.6616     -12.578900000000001                 14.2041
   155   2                -27.8505                 -11.945      14.476100000000001
   156   7     -28.508099999999999     -12.148400000000001      15.478899999999999
   157   7     -28.225200000000001     -11.173999999999999      13.436299999999999
   158   2                -27.2468                -11.2309                 12.3089
   159   4     -26.909099999999999                  11.369      12.076599999999999
   160   4     -27.683800000000002      9.7127599999999994      11.478400000000001
   161   2                -35.9604     -3.8012600000000001      18.520499999999998
   162   4                 -35.262     -4.5362499999999999      18.246300000000002
   163   4     -36.662300000000002                -3.62961      17.684799999999999
   164   7                -35.3461                 -2.5366                 18.9392
   165   2                -36.0366                -2.04257                      20
   166   7                -14.3256    -0.92226600000000003      20.424900000000001
   167   7     -36.877400000000002                 -2.9661      20.521599999999999
   168   2     -36.640900000000002     -4.2197100000000001      19.846900000000002
   169   4     -37.608400000000003     -4.6550099999999999                 19.6388
   170   4     -35.917299999999997     -4.8520500000000002                 20.4633
   171   2                -11.9215     -5.8502400000000003                 15.1967
   172   4     -12.145899999999999                -6.01349                 16.2148
   173   4     -10.801399999999999     -5.8428899999999997      15.156000000000001
   174   7                -12.3193     -4.4645000000000001                 14.9688
   175   2                -13.1738     -4.4500099999999998                 13.8995
   176   7                -13.6371     -3.4129100000000001      13.451000000000001
   177   7                  -13.35     -5.6828500000000002      13.354900000000001
   178   2     -12.693099999999999     -6.6568500000000004                  14.132
   179   4     -11.973000000000001     -7.0407999999999999                 13.4109
   180   4                -13.4161     -7.3329500000000003      14.566700000000001
   181   2     -21.434899999999999     -11.681100000000001                 4.10114
   182   4     -21.027999999999999      10.488200000000001      3.3622200000000002
   183   4     -22.492699999999999     -11.433999999999999      4.3140099999999997
   184   7     -20.639500000000002                 10.0168                 5.27163
   185   2     -19.938199999999998                -12.6706      5.4432499999999999
   186   7     -19.133199999999999                -12.8485      6.3145600000000002
   187   7     -20.270900000000001     -13.722300000000001      4.5977199999999998
   188   2                -21.2378                -13.1998                 3.72845
   189   4     -22.163399999999999     -13.787699999999999      3.8006700000000002
   190   4                -20.8048                -13.2681      24.182500000000001
   191   2                -24.1541               -0.330289      18.508900000000001
   192   4     -23.497299999999999     0.46906100000000001      18.841899999999999
   193   4     -24.778099999999998                0.176263      17.796500000000002
   194   7                -24.9772    -0.69896499999999995                 19.5989
   195   2     -25.442900000000002     -1.9130400000000001                 19.4374
   196   7                 -26.198                -2.42605      20.293399999999998
   197   7     -24.840399999999999     -2.4767399999999999      18.299600000000002
   198   2     -23.642900000000001                -1.67831                 17.9877
   199   4     -23.463000000000001     -1.7518800000000001      16.901199999999999
   200   4                -22.7697     -2.1895799999999999      18.387899999999998
   201   2                -21.8996     -3.1141299999999998                 22.2879
   202   4                -21.4451     -2.4022000000000001      22.994499999999999
   203   4                -21.6172     -2.6892200000000002      21.310199999999998
   204   7     -23.357099999999999     -3.1837800000000001      22.321200000000001
   205   2     -23.834599999999998     -4.4355099999999998      22.690000000000001
   206   7                -25.0242     -4.6448099999999997      22.743500000000001
   207   7     -22.775600000000001     -5.2967399999999998                 1.26248
   208   2     -21.575900000000001     -4.6250900000000001      1.0480400000000001
   209   4                -20.9955     -5.1530300000000002     0.25691000000000003
   210   4     -20.962700000000002     -4.6582800000000004                 1.93041
   211   2     -10.077299999999999     -7.0237800000000004                 20.1023
   212   4                 -9.3506     -7.7053799999999999      19.622699999999998
   213   4                -9.80246     -6.8408300000000004      21.115300000000001
   214   7                -11.3222     -7.7208300000000003      19.999099999999999
   215   2                -12.1813                -6.91547                 19.3048
   216   7                -13.3249                -7.26485                 19.0718
   217   7                -11.6684     -5.7941799999999999                -2.68499
   218   2                -10.2187     -5.5737399999999999                -2.13971
   219   4     -31.953700000000001     -4.7475100000000001                -1.44811
   220   4     -9.5666100000000007     -5.4849500000000004     -3.0134300000000001
   221   2                -22.1844      13.759600000000001      14.273400000000001
   222   4     -22.286100000000001      14.860900000000001                 14.4491
   223   4     -21.138400000000001      13.673299999999999                 14.0999
   224   7     -22.959499999999998                 13.4924      13.098100000000001
   225   2     -24.163499999999999      13.004099999999999      13.547599999999999
   226   7     -25.171299999999999                 12.8545                 12.9026
   227   7                -24.0578      12.543699999999999                  14.824
   228   2                -22.7699      12.956200000000001                 15.4056
   229   4     -22.174600000000002                 12.0909      15.688800000000001
   230   4                -22.8264                 13.6465      16.251300000000001
   231   2     -36.557600000000001      7.5953999999999997      17.067699999999999
   232   4     -36.224299999999999      8.6010500000000008      17.351900000000001
   233   4     -36.725900000000003      6.9657900000000001                 17.9421
   234   7     -35.515700000000002                 7.11198      16.091799999999999
   235   2     -36.153100000000002      6.5511600000000003                 15.0535
   236   7     -14.122999999999999      5.9763299999999999      14.106999999999999
   237   7     -37.485199999999999      6.7556500000000002      15.127700000000001
   238   2     -37.784100000000002      7.6544999999999996      16.238900000000001
   239   4     -38.677599999999998      7.2462200000000001      16.658300000000001
   240   4     -38.123600000000003      8.5989199999999997                 15.8552
   241   2     -33.134999999999998     -9.2740100000000005      7.2776300000000003
   242   4     -33.113500000000002     -9.0255799999999997      8.3322000000000003
   243   4     -34.030700000000003     -8.8684799999999999                 6.74552
   244   7     -33.203000000000003                -10.6732      7.1401399999999997
   245   2                -32.0501     -11.165800000000001      6.5034599999999996
   246   7     -31.793299999999999                -12.3308      6.5172600000000003
   247   7     -31.375900000000001     -10.098800000000001      6.0299100000000001
   248   2                -31.8263     -8.8599499999999995      6.5186200000000003
   249   4                -31.9602     -8.1358800000000002      5.7059300000000004
   250   4                -31.1691     -8.3325099999999992      7.2425699999999997
   251   2     -22.851500000000001     -7.6899199999999999      8.7357300000000002
   252   4     -22.461500000000001     -7.6321500000000002      7.7414199999999997
   253   4     -22.605899999999998     -8.7021099999999993      9.0125700000000002
   254   7     -24.271599999999999     -7.5651000000000002      8.7216299999999993
   255   2     -24.765899999999998     -6.8793800000000003      9.7769600000000008
   256   7     -26.011099999999999     -6.7528800000000002      9.9348600000000005
   257   7     -23.738600000000002     -6.3940999999999999                 10.5495
   258   2     -22.489599999999999     -6.6701899999999998      9.8644300000000005
   259   4                 -21.817     -7.1035300000000001                 10.6717
   260   4                -21.9254     -5.8055099999999999      9.5713399999999993
   261   2     -25.591899999999999      9.6231299999999997                 17.6267
   262   4     -25.654900000000001      9.5287199999999999                 16.4832
   263   4     -26.441600000000001      9.0659500000000008      18.013300000000001
   264   7                -25.7151                 10.9902      18.034500000000001
   265   2     -24.495699999999999      11.430899999999999      18.318000000000001
   266   7     -24.180800000000001                 12.5898      18.403500000000001
   267   7     -23.606400000000001                 10.4085      18.459299999999999
   268   2                -24.2836      9.1441599999999994      18.267600000000002
   269   4     -24.565200000000001      8.5789899999999992      19.154299999999999
   270   4     -23.680700000000002      8.5443800000000003                 17.5867
   271   2     -28.672899999999998     -7.8462399999999999      12.736000000000001
   272   4     -29.116199999999999     -7.8824199999999998                 11.7014
   273   4                -28.2928     -8.8193999999999999                 13.0687
   274   7     -29.819600000000001     -7.4303400000000002                 13.6029
   275   2     -29.739699999999999     -6.0427799999999996                 13.7364
   276   7     -30.541499999999999     -5.3480100000000004      14.327199999999999
   277   7     -28.655999999999999     -5.5424300000000004      13.249000000000001
   278   2     -27.729600000000001     -6.6414499999999999                 12.9565
   279   4     -27.089099999999998     -6.9062400000000004                 13.7982
   280   4                -27.2242     -6.3180199999999997                 12.0586
   281   2                -34.6205      9.8302300000000002                 10.5291
   282   4     -34.030299999999997                 10.5342      9.8433200000000003
   283   4     -34.587400000000002                 10.1655      11.589399999999999
   284   7     -34.008600000000001                -13.1037      10.536099999999999
   285   2                -34.6325                -13.8033      9.6298499999999994
   286   7     -34.257599999999996     -14.867599999999999      9.1796500000000005
   287   7     -35.755000000000003     -13.158200000000001                 9.06325
   288   2     -36.022399999999998                 9.50075      9.9975400000000008
   289   4                -36.7682      9.2335999999999991                 10.8002
   290   4     -36.415100000000002                 10.3253      9.4478100000000005
   291   2                -26.3874      6.5241100000000003      5.0610900000000001
   292   4                 -26.613      6.5910299999999999      6.1574900000000001
   293   4                -26.5078                 7.50915      4.5264199999999999
   294   7     -27.151399999999999                 5.60107      4.3602499999999997
   295   2     -26.295000000000002      4.5116500000000004      3.8807100000000001
   296   7     -26.728999999999999      3.4728599999999998      3.4921600000000002
   297   7     -24.997499999999999      4.8668399999999998      3.8731599999999999
   298   2     -24.888999999999999      6.0849599999999997      4.7866200000000001
   299   4                -24.2744      6.8922100000000004      4.2282000000000002
   300   4                -24.2989      5.7906599999999999      5.6863200000000003
   301   2     -25.674399999999999                 9.75671      6.0364399999999998
   302   4     -26.366399999999999                 10.3172      5.4468500000000004
   303   4                -25.2331      8.9304799999999993                  5.4802
   304   7     -26.299600000000002      9.2727699999999995      7.2329999999999997
   305   2     -25.571899999999999      9.6291200000000003      8.3855299999999993
   306   7     -25.807400000000001      9.1728299999999994      9.4919399999999996
   307   7     -24.635899999999999      10.518700000000001      8.0396900000000002
   308   2     -24.543900000000001      10.660299999999999      6.5816600000000003
   309   4     -23.613399999999999      10.305099999999999      6.2102000000000004
   310   4     -24.677199999999999      11.702400000000001      6.3529499999999999
   311   2     -20.107500000000002                -11.2005                  10.426
   312   4     -21.023800000000001                -11.7728                 10.4756
   313   4                  -19.18                -11.7997      10.595599999999999
   314   7     -20.179300000000001                -10.1174      11.316800000000001
   315   2     -19.892600000000002     -8.9120600000000003                 10.7507
   316   7     -19.744599999999998     -7.8639999999999999                 11.3515
   317   7     -19.900500000000001     -9.0253999999999994      9.3562899999999996
   318   2     -20.043199999999999                -10.4839      8.9943600000000004
   319   4                -19.1767     -10.738300000000001      8.3896999999999995
   320   4                -20.8568     -10.584300000000001      8.3674700000000009
   321   2     -20.393999999999998      4.8221999999999996                -5.20085
   322   4                -20.7059      5.5827200000000001     -5.9039400000000004
   323   4     -20.213000000000001      5.2325999999999997     -4.2309400000000004
   324   7                -40.7866      4.1961599999999999     -5.7503700000000002
   325   2                -40.7971      2.8891399999999998     -5.4428999999999998
   326   7     -39.848999999999997      2.1757399999999998     -5.5499400000000003
   327   7     -42.069499999999998      2.4788800000000002     -5.1132400000000002
   328   2     -42.959699999999998                 3.62385     -5.0828300000000004
   329   4                -43.6342                  3.5566     -4.2214900000000002
   330   4     -43.525300000000001      3.4038900000000001     -5.9843299999999999
   331   2     -23.872800000000002                 1.34274      15.036899999999999
   332   4     -23.744299999999999      2.1853400000000001      15.767200000000001
   333   4     -24.752199999999998                0.704681      15.277799999999999
   334   7     -22.716799999999999     0.32885999999999999                  15.169
   335   2     -21.855399999999999     0.46087800000000001                 14.1822
   336   7     -20.813300000000002    -0.13078100000000001                 14.0787
   337   7     -22.372800000000002      1.2740499999999999      13.222799999999999
   338   2                -23.7178                 1.76196      13.579800000000001
   339   4     -24.295500000000001      1.3411200000000001                 12.7217
   340   4     -23.686800000000002      2.8652700000000002      13.556800000000001
   341   2     -29.174700000000001      2.3885700000000001                 11.9284
   342   4     -29.046399999999998      3.4534400000000001      11.569599999999999
   343   4                -29.3247      1.7360500000000001                 11.0335
   344   7     -30.449400000000001                 2.43011                 12.7285
   345   2     -30.299499999999998      1.6075699999999999                 13.8001
   346   7     -31.266100000000002                 1.28606                 14.5259
   347   7     -29.056799999999999      1.0654300000000001                  13.869
   348   2     -28.177600000000002                 1.81782      13.024900000000001
   349   4     -27.329999999999998      1.1821200000000001      12.687200000000001
   350   4     -27.777899999999999      2.6540400000000002      13.527100000000001
   351   2     -23.319500000000001     -8.9205799999999993     0.50393699999999997
   352   4     -22.519600000000001     -8.1645699999999994     0.39414199999999999
   353   4     -23.726600000000001     -9.2756000000000007    -0.43581900000000001
   354   7     -24.396899999999999                -8.54711      1.3481300000000001
   355   2     -24.503499999999999     -9.4562500000000007      2.3449200000000001
   356   7                -25.4162     -9.2836400000000001                  3.1229
   357   7     -23.592700000000001                -10.4146      2.4064800000000002
   358   2     -22.779699999999998                -10.2036                 1.23285
   359   4     -22.857399999999998     -11.170400000000001     0.71693300000000004