(written by ASE)

888 atoms
9 atom types

0.0      21.553999999999998  xlo xhi
0.0      21.553999999999998  ylo yhi
0.0                  21.544  zlo zhi

Atoms # atomic

     1   2     -32.983800000000002                -12.1785      20.635200000000001
     2   4     -33.686100000000003     -12.236700000000001      21.458300000000001
     3   4                -31.9541     -12.504300000000001                  21.026
     4   7     -32.963700000000003     -10.802199999999999      20.093800000000002
     5   2     -32.644399999999997                -10.8948      18.765499999999999
     6   7     -32.293700000000001                -10.0459                 18.0306
     7   7     -32.943300000000001                -12.1835      18.290800000000001
     8   2                -33.5383                -12.9389      19.383500000000002
     9   4     -33.025599999999997                -13.9407      19.293700000000001
    10   4     -34.643099999999997     -12.985799999999999      19.136500000000002
    11   2                -26.4102     -6.6284200000000002                 5.94421
    12   4                -25.8126     -7.1047399999999996      6.6982799999999996
    13   4                 -26.404                 15.9985      5.8573599999999999
    14   7     -27.813199999999998     -7.1401599999999998      6.1392899999999999
    15   2     -28.372499999999999     -7.3929099999999996      4.8848700000000003
    16   7     -29.549700000000001     -7.5737800000000002      4.7389000000000001
    17   7     -27.382100000000001     -7.2379800000000003      3.9573999999999998
    18   2     -26.087599999999998     -7.3230899999999997      4.5783100000000001
    19   4                -25.3935     -6.6655699999999998      4.0238800000000001
    20   4     -25.825399999999998                 -8.3544      4.5482500000000003
    21   2     -27.758500000000002                -3.87683      2.3179099999999999
    22   4                -28.5318                -4.11599                 1.57152
    23   4     -27.546399999999998     -4.8884800000000004      2.7572299999999998
    24   7     -28.394600000000001     -3.0252300000000001      3.3526500000000001
    25   2     -27.721800000000002     -1.8803799999999999      3.4560599999999999
    26   7     -27.933399999999999                -1.01254      4.3252100000000002
    27   7                -26.6922     -1.7770999999999999      2.5709499999999998
    28   2     -26.561599999999999                -3.02427      1.7737700000000001
    29   4     -25.568200000000001     -3.5060099999999998                  2.0002
    30   4     -26.681699999999999     -2.6956199999999999                0.753417
    31   2                -12.7705      3.7001400000000002                -1.93259
    32   4                -11.8253      3.9580799999999998     -1.4877899999999999
    33   4     -13.229799999999999                 2.77163                 -1.5064
    34   7     -12.664199999999999      3.4603799999999998                -3.35297
    35   2                -13.6053      4.1797000000000004     -3.9922300000000002
    36   7                 -13.699      4.1999500000000003     -5.1916900000000004
    37   7     -14.392099999999999      4.9346300000000003     -3.1587999999999998
    38   2                -13.7517      4.9111500000000001     -1.8017700000000001
    39   4     -14.619400000000001      4.7959699999999996                -1.14435
    40   4     -13.325699999999999                 5.83894     -1.7199500000000001
    41   2     -21.476400000000002                -7.00101                 17.1036
    42   4                -21.0457     -6.3118699999999999      16.314299999999999
    43   4     -20.971299999999999     -7.9787999999999997                 17.2471
    44   7     -22.876200000000001     -7.3264399999999998      16.792300000000001
    45   2     -23.671199999999999     -6.6486900000000002                 17.7196
    46   7                -24.8796     -6.6439000000000004      17.650300000000001
    47   7     -22.978000000000002     -6.1236800000000002      18.730499999999999
    48   2     -21.542999999999999     -6.1521100000000004      18.429099999999998
    49   4     -21.068000000000001     -6.6149399999999998      19.364999999999998
    50   4                -21.1313     -5.2136199999999997                 18.1403
    51   2                -17.0746                 11.6439                 13.8179
    52   4                -16.3414      11.789999999999999                 14.6663
    53   4     -17.923100000000002                 12.3118                 13.9773
    54   7                -17.7089     -11.263999999999999      13.978400000000001
    55   2     -17.880199999999999                -11.7133      12.701599999999999
    56   7                 -18.555                -12.6614                 12.3658
    57   7     -17.290700000000001      10.575799999999999                 11.7704
    58   2     -16.489599999999999                 11.6191      12.368399999999999
    59   4     -16.505299999999998                 12.5563                 11.8287
    60   4     -15.454800000000001      11.195499999999999                 12.4975
    61   2     -18.920400000000001     -1.9687300000000001      17.209700000000002
    62   4     -19.569299999999998     -1.0454699999999999      17.216200000000001
    63   4     -18.897300000000001     -2.4834299999999998      16.223299999999998
    64   7     -19.345199999999998                 -3.0143      18.271699999999999
    65   2                -18.4925     -3.0510000000000002      19.287600000000001
    66   7     -18.633099999999999     -3.7680600000000002      20.325399999999998
    67   7                 -17.433     -2.1629100000000001                 19.0885
    68   2     -17.461400000000001     -1.7103200000000001      17.673400000000001
    69   4     -16.772600000000001     -2.3936500000000001      17.198499999999999
    70   4     -17.141100000000002    -0.71622699999999995      17.749400000000001
    71   2     -28.678599999999999      7.2643599999999999                -3.50441
    72   4     -27.807200000000002      7.3849099999999996     -4.1494999999999997
    73   4     -29.449000000000002      6.7482100000000003     -4.1606699999999996
    74   7     -29.159400000000002      8.5561699999999998     -3.1288900000000002
    75   2     -29.483000000000001                -13.0825     -1.7520800000000001
    76   7     -29.875399999999999                -12.1554     -1.0902000000000001
    77   7     -29.188800000000001      7.1974900000000002                -1.23628
    78   2     -28.456600000000002      6.4806499999999998     -2.2170899999999998
    79   4     -28.823599999999999      5.4688999999999997     -2.2389000000000001
    80   4                -27.3673                 6.36219     -1.9088400000000001
    81   2     -30.090699999999998                 -12.698      9.2382899999999992
    82   4     -31.058700000000002                -12.3977      9.6733499999999992
    83   4     -29.640499999999999                 -13.645      9.6563599999999994
    84   7     -29.175899999999999     -11.579000000000001      9.5782500000000006
    85   2                -29.0761                -10.7318      8.5449400000000004
    86   7                 -28.436     -9.6985899999999994                 8.69998
    87   7     -29.523900000000001                 -11.205      7.4116400000000002
    88   2     -30.037700000000001     -12.565300000000001      7.6747500000000004
    89   4                 -29.221                -13.2789      7.3254799999999998
    90   4     -31.045999999999999     -12.629799999999999      7.3201200000000002
    91   2     -18.913699999999999     -9.7836400000000001      23.024899999999999
    92   4     -18.438099999999999     -10.712899999999999                 23.3566
    93   4     -19.582999999999998     -9.4025599999999994      23.858000000000001
    94   7     -19.714200000000002     -9.9199900000000003      21.829899999999999
    95   2     -19.666899999999998                -8.74681      21.142299999999999
    96   7     -20.494399999999999     -8.4909400000000002      20.277699999999999
    97   7     -18.643899999999999     -7.9467499999999998      21.624199999999998
    98   2     -17.879300000000001     -8.7001399999999993                 22.6066
    99   4     -17.581800000000001     -8.0339200000000002                 23.4391
   100   4     -17.000399999999999     -9.0890799999999992      22.082599999999999
   101   2                -20.7362     -4.7067100000000002      8.8866300000000003
   102   4     -20.751000000000001     -4.3903699999999999      9.9101300000000005
   103   4     -20.618300000000001     -5.7863800000000003      8.8228399999999993
   104   7     -19.498000000000001     -4.0406500000000003      8.3729399999999998
   105   2     -19.889500000000002     -2.9519899999999999      7.7202999999999999
   106   7     -19.078900000000001                -2.07131      7.4334699999999998
   107   7     -21.253499999999999     -2.9757600000000002      7.5112100000000002
   108   2     -21.794599999999999     -4.1966700000000001      8.0147700000000004
   109   4     -21.872900000000001                -4.77942      7.0756100000000002
   110   4     -22.728100000000001                -3.90984      8.4677399999999992
   111   2     -25.416699999999999      5.6142500000000002     -4.5236999999999998
   112   4     -25.995699999999999                 6.27156      16.314699999999998
   113   4                -26.0244      5.0838799999999997     -3.8437199999999998
   114   7                -24.5275      6.4491100000000001     -3.6737799999999998
   115   2     -23.261600000000001      5.9072899999999997                -3.61721
   116   7                 -22.352      6.2569900000000001     -2.8918499999999998
   117   7                -23.1968      4.8603300000000003     -4.5590000000000002
   118   2     -24.437999999999999      4.6215000000000002                -5.25176
   119   4     -24.604900000000001      3.5427200000000001     -5.0362099999999996
   120   4     -24.284800000000001                 4.95641                 15.2902
   121   2     -37.620800000000003                -13.2356      22.574400000000001
   122   4     -38.348100000000002     -13.985799999999999                 22.4099
   123   4     -37.965699999999998     -12.633599999999999      23.395900000000001
   124   7     -37.748800000000003     -12.204700000000001      21.496400000000001
   125   2     -36.735599999999998     -12.492100000000001                 20.6342
   126   7     -36.479700000000001     -11.857799999999999      19.635400000000001
   127   7     -35.994900000000001     -13.567299999999999                 20.9862
   128   2     -36.249899999999997                -13.8208      22.459499999999998
   129   4     -35.480200000000004                -13.2751      23.009899999999998
   130   4     -36.268000000000001     -14.932700000000001      22.521899999999999
   131   2                -15.6067     -9.1915999999999993      17.721499999999999
   132   4                -15.0052     -8.3507999999999996      17.333500000000001
   133   4                -14.9794                -10.0586      17.753900000000002
   134   7                -16.6525     -9.4967000000000006                 16.7928
   135   2     -17.886700000000001     -9.4652899999999995      17.344000000000001
   136   7     -18.980499999999999     -9.5903399999999994      16.767199999999999
   137   7                -17.7883     -9.2333300000000005      18.638300000000001
   138   2     -16.359999999999999     -8.8694600000000001      18.955200000000001
   139   4                -16.1266     -9.5447100000000002      19.807400000000001
   140   4     -16.354600000000001     -7.8394500000000003                 19.3628
   141   2                -10.0878     -3.1328900000000002      5.2630800000000004
   142   4                -9.63246     -2.2616700000000001      4.7367999999999997
   143   4     -32.710000000000001     -3.0353400000000001      5.2655200000000004
   144   7                -31.2179     -2.9702500000000001      6.6616499999999998
   145   2     -30.024100000000001     -3.6457600000000001      6.8609499999999999
   146   7     -29.261700000000001                -3.32592      7.7593100000000002
   147   7                -8.18065     -4.4194399999999998      5.8161500000000004
   148   2     -9.4259000000000004     -4.4339700000000004      4.9166499999999997
   149   4     -10.076000000000001                -5.31684      5.1946899999999996
   150   4     -9.0728899999999992     -4.5878100000000002      3.8953700000000002
   151   2                -26.4617     -13.283300000000001      11.478300000000001
   152   4     -26.488499999999998                -12.1813                  11.551
   153   4     -26.922000000000001     -13.673299999999999                 10.5573
   154   7     -27.401399999999999     -13.726900000000001                 12.5161
   155   2     -26.703299999999999                -14.1557                 13.5966
   156   7     -27.204699999999999                -14.5261                 14.6249
   157   7     -25.357099999999999     -14.144500000000001                 13.3765
   158   2     -25.140499999999999     -14.018700000000001                 11.8589
   159   4                -25.0456      6.5219100000000001                 11.4162
   160   4                -24.2257      8.1328700000000005                 11.7432
   161   2     -35.653300000000002     -1.9373100000000001                 19.1739
   162   4     -34.515999999999998     -1.8783099999999999      19.148700000000002
   163   4     -36.080399999999997     -2.7549199999999998      18.578099999999999
   164   7     -36.104100000000003    -0.63814899999999997      18.651599999999998
   165   2     -36.295699999999997     0.18521299999999999      19.744800000000001
   166   7                -14.8345                 1.34754      19.715900000000001
   167   7     -36.335900000000002    -0.49911100000000003      20.904599999999999
   168   2     -36.094299999999997     -1.9697499999999999      20.660799999999998
   169   4     -37.023099999999999     -2.4735900000000002      20.757000000000001
   170   4     -35.260899999999999                 -2.3828      21.282699999999998
   171   2     -12.121700000000001     -4.3295599999999999      14.938700000000001
   172   4                -11.3217     -5.0675999999999997      14.699299999999999
   173   4     -12.731999999999999     -4.3361499999999999      14.072699999999999
   174   7                -11.6495                -3.05803      15.205500000000001
   175   2     -11.736000000000001                -2.73508      16.541399999999999
   176   7     -11.305400000000001                -1.72231      17.060099999999998
   177   7                -12.4696     -3.6687400000000001      17.126100000000001
   178   2                -13.0159     -4.6341299999999999                 16.1372
   179   4                -13.9878     -4.2692500000000004                 16.0549
   180   4     -12.876099999999999                -5.63246                 16.5307
   181   2     -22.271699999999999     -11.423999999999999      4.5226699999999997
   182   4                -22.4011      10.973599999999999      3.7973400000000002
   183   4     -23.299299999999999                -11.6578                 4.92692
   184   7     -21.280999999999999      10.509399999999999      5.5759299999999996
   185   2                 -20.337                -12.0595      5.5486399999999998
   186   7     -19.394600000000001                -11.9672      6.3325199999999997
   187   7     -20.419899999999998     -12.956300000000001      4.5209099999999998
   188   2     -21.673400000000001     -12.637700000000001      3.7934999999999999
   189   4     -22.391300000000001     -13.508599999999999      3.7751100000000002
   190   4     -21.414999999999999                -12.4465      24.224299999999999
   191   2     -23.488399999999999    -0.91807799999999995      18.031099999999999
   192   4     -22.684000000000001    -0.61273900000000003      18.784700000000001
   193   4                -24.0427  0.00094678999999999998      17.582100000000001
   194   7     -24.588200000000001                -1.63662                 18.7759
   195   2     -24.523199999999999     -2.9454799999999999      18.471699999999998
   196   7     -25.302499999999998                -3.70478      18.959499999999998
   197   7     -23.465800000000002     -3.2335400000000001      17.654399999999999
   198   2     -22.885999999999999     -2.0084499999999998      17.108000000000001
   199   4     -23.159700000000001     -1.8930199999999999      16.037700000000001
   200   4     -21.804500000000001     -2.0621900000000002      17.208500000000001
   201   2                -22.1553     -3.0464799999999999      21.613600000000002
   202   4     -21.657399999999999     -2.3839700000000001                 22.3279
   203   4                -22.1327     -2.5984099999999999      20.574400000000001
   204   7     -23.556799999999999     -3.3304900000000002      21.889099999999999
   205   2     -23.674600000000002     -4.7362399999999996                  21.605
   206   7     -24.734000000000002     -5.3210499999999996                 21.6218
   207   7     -22.541399999999999     -5.3176800000000002                -0.23904
   208   2     -21.462800000000001     -4.3579800000000004                0.124447
   209   4     -20.601800000000001     -4.4114800000000001    -0.55354700000000001
   210   4     -21.225999999999999     -4.6881300000000001      1.1509799999999999
   211   2     -11.988799999999999                -7.10616      19.040600000000001
   212   4     -11.671900000000001     -7.0855399999999999                 18.0077
   213   4                -11.4681     -7.9541399999999998      19.540299999999998
   214   7                -13.4505     -7.3489699999999996                 19.0337
   215   2                -14.0334     -6.2763999999999998      19.701599999999999
   216   7                 -15.163     -6.2300300000000002                 20.2531
   217   7                -13.1439     -5.3100800000000001     -1.6480699999999999
   218   2     -11.788399999999999     -5.7460100000000001                 -1.8873
   219   4     -32.890999999999998     -5.8301999999999996    -0.93533500000000003
   220   4                -11.2211     -4.9863299999999997     -2.5020099999999998
   221   2     -20.923300000000001      11.287599999999999      14.486000000000001
   222   4     -20.507100000000001      12.066700000000001                 13.7859
   223   4     -20.097300000000001                 11.0433      15.227499999999999
   224   7     -21.290500000000002                 10.1347                 13.7111
   225   2     -22.630299999999998      9.8954699999999995                 13.7088
   226   7     -23.183499999999999      9.0502199999999995                 13.0632
   227   7                -23.2514                  10.817      14.622999999999999
   228   2     -22.259599999999999      11.715400000000001      15.131500000000001
   229   4     -22.325099999999999                  11.669      16.255500000000001
   230   4     -22.563600000000001                 12.7385                 14.8268
   231   2     -35.971499999999999      9.3851300000000002      16.420400000000001
   232   4                -36.7834      9.3707799999999999                 17.1965
   233   4                -35.3003      10.284000000000001      16.522500000000001
   234   7                -36.6768      9.6353000000000009                 15.2014
   235   2     -36.219299999999997      8.7226199999999992                 14.2248
   236   7                -14.9421      8.8127600000000008                 13.0449
   237   7     -35.341099999999997                 7.85067      14.784700000000001
   238   2     -35.282800000000002      8.0481499999999997      16.243200000000002
   239   4     -34.226500000000001      7.9615600000000004                 16.5093
   240   4     -35.794800000000002      7.1660000000000004                 16.6388
   241   2     -34.334099999999999     -9.3092100000000002      6.4214200000000003
   242   4     -35.146700000000003     -8.6168999999999993      6.4607700000000001
   243   4     -34.648000000000003                -10.2873      6.0441099999999999
   244   7     -33.749200000000002     -9.5651899999999994      7.7026199999999996
   245   2     -32.488100000000003     -9.0325299999999995                 7.81074
   246   7                -31.7866     -9.0513399999999997      8.7360100000000003
   247   7                -32.1828     -8.3700799999999997                 6.60297
   248   2     -33.030299999999997     -8.8585200000000004      5.5541400000000003
   249   4     -32.593600000000002     -9.7538900000000002      5.1423100000000002
   250   4                -33.1633     -8.0798000000000005      4.8043699999999996
   251   2                -23.9832     -6.5899599999999996      9.6507299999999994
   252   4     -23.693000000000001     -5.8368900000000004      10.445499999999999
   253   4     -23.414300000000001     -6.3524599999999998      8.7596699999999998
   254   7     -25.322600000000001                 -6.0831      9.1644900000000007
   255   2     -26.241800000000001     -7.0052599999999998      9.5011500000000009
   256   7     -27.430700000000002     -6.8796799999999996      9.2245799999999996
   257   7                -25.8033     -8.0649700000000006                 10.2446
   258   2     -24.268899999999999     -8.0228900000000003      10.114800000000001
   259   4     -23.942599999999999                -8.73766                 9.39269
   260   4     -23.862300000000001     -8.0329099999999993      11.197100000000001
   261   2     -25.943200000000001      9.3894800000000007                  19.134
   262   4                -25.6675      8.4502900000000007      18.590699999999998
   263   4                -26.9678      9.2742100000000001                 19.3963
   264   7                -25.8826                 10.4528      18.127500000000001
   265   2                -24.6921                 10.9823                 18.2178
   266   7     -24.172899999999998                 11.6434      17.347300000000001
   267   7     -24.021000000000001      10.576700000000001                 19.3721
   268   2     -24.953900000000001      9.7681799999999992      20.254999999999999
   269   4                -25.3904      10.461600000000001      20.981400000000001
   270   4     -24.373999999999999      8.9053100000000001      20.597300000000001
   271   2     -30.216699999999999     -8.1067599999999995      12.145799999999999
   272   4                -30.8413     -8.2551199999999998                 11.2727
   273   4     -30.719999999999999     -8.5553899999999992                 13.0335
   274   7     -29.985099999999999     -6.7149900000000002                 12.4023
   275   2     -28.725999999999999     -6.5916100000000002                 12.9674
   276   7     -28.356200000000001     -5.5164799999999996                  13.456
   277   7     -27.964400000000001     -7.6969900000000004                 12.7492
   278   2     -28.792200000000001     -8.6766299999999994                  11.978
   279   4                -28.5457     -9.6645400000000006                 12.4849
   280   4     -28.522200000000002                -8.60961                 10.9162
   281   2     -35.621600000000001                 10.2395      10.191800000000001
   282   4     -36.452800000000003      9.8111200000000007                 10.7409
   283   4     -35.983899999999998      11.114599999999999      9.7041900000000005
   284   7                -35.4039     -12.293699999999999      9.1029300000000006
   285   2     -34.066099999999999                -12.5212      9.0542599999999993
   286   7     -33.512700000000002                -13.0929      8.1379400000000004
   287   7     -33.391500000000001     -12.057700000000001                 10.1434
   288   2     -34.343299999999999      10.322800000000001      10.967599999999999
   289   4     -33.968600000000002                 11.3154                 11.1473
   290   4     -34.326999999999998      9.7842900000000004                 11.9047
   291   2     -27.470400000000001      5.8056700000000001      5.1692400000000003
   292   4     -28.149899999999999                 6.30044      5.8920399999999997
   293   4     -27.209399999999999      6.5061299999999997      4.3805500000000004
   294   7     -28.150500000000001                 4.66106      4.4992700000000001
   295   2     -27.276399999999999      3.6151900000000001      4.4804000000000004
   296   7     -27.525600000000001      2.5416699999999999      3.9129399999999999
   297   7     -26.133900000000001      3.8227000000000002                 5.15578
   298   2     -26.192399999999999      5.1406700000000001                 5.78484
   299   4                -25.3857      5.6674199999999999      5.3524799999999999
   300   4     -26.107199999999999      5.1118699999999997      6.8866199999999997
   301   2     -26.195900000000002                  10.244      5.6201600000000003
   302   4     -26.887599999999999                 11.0786      5.2706900000000001
   303   4     -25.668299999999999      9.8882600000000007      4.6776799999999996
   304   7                -27.0535      9.1018699999999999      6.1063799999999997
   305   2                -26.4251      8.6370799999999992      7.2567700000000004
   306   7                -26.8643                 7.69787      7.8500500000000004
   307   7     -25.389600000000002      9.3886900000000004                 7.62521
   308   2                -25.3459      10.626899999999999      6.8661199999999996
   309   4     -24.299099999999999                 10.8973      6.5299800000000001
   310   4     -25.783999999999999                 11.4261      7.4723300000000004
   311   2                 -20.209                -10.4886                 9.60975
   312   4     -19.466000000000001                -11.2738      9.4657599999999995
   313   4     -20.581099999999999                -10.0716      8.6086500000000008
   314   7     -19.570599999999999     -9.4806600000000003      10.435600000000001
   315   2     -20.413799999999998     -8.9150600000000004                  11.269
   316   7     -20.200600000000001     -8.0409500000000005      12.019399999999999
   317   7     -21.631699999999999     -9.5952800000000007                 11.1922
   318   2     -21.402899999999999                -10.8215                 10.5291
   319   4     -22.327200000000001     -11.129300000000001      9.9572800000000008
   320   4     -21.238700000000001                -11.6248                 11.2959
   321   2     -17.339099999999998      4.6797300000000002     -4.4479600000000001
   322   4     -17.449300000000001      5.2368399999999999     -5.3970700000000003
   323   4     -16.494499999999999      5.1633399999999998     -3.8798300000000001
   324   7     -38.668500000000002                  3.2942     -4.8301600000000002
   325   2     -39.874499999999998                 2.70221     -4.9383100000000004
   326   7     -40.060499999999998                  1.5766     -5.4274800000000001
   327   7     -40.921199999999999      3.4780600000000002     -4.5217700000000001
   328   2     -40.201099999999997      4.5215500000000004     -3.7332100000000001
   329   4                -40.0471      4.2641099999999996     -2.6729099999999999
   330   4     -40.797699999999999      5.4422100000000002     -3.6653799999999999
   331   2     -21.886199999999999      2.4245199999999998                 14.3514
   332   4     -21.951699999999999      2.9862899999999999      13.472799999999999
   333   4     -21.435199999999998                 3.01037      15.182600000000001
   334   7     -20.887699999999999                 1.30874                 13.8939
   335   2                -21.3782                0.130805                 14.4015
   336   7                -20.7666    -0.88575499999999996      14.513999999999999
   337   7     -22.674399999999999     0.30295299999999997      14.792299999999999
   338   2                -23.1995      1.5913299999999999      14.545199999999999
   339   4     -23.831399999999999      1.8510500000000001                 15.4436
   340   4     -23.754999999999999      1.5088200000000001                 13.6044
   341   2                -28.1113                 1.71696      12.175700000000001
   342   4     -28.225999999999999                 2.36992                 11.2597
   343   4     -27.443999999999999     0.86783900000000003                 11.9323
   344   7                 -29.439                 1.18946                 12.4694
   345   2     -29.406300000000002     0.87502199999999997                 13.8171
   346   7                -30.2516     0.35674400000000001                 14.5106
   347   7     -28.317499999999999                 1.44502                 14.3919
   348   2     -27.738800000000001      2.4314399999999998                 13.4122
   349   4     -26.603400000000001      2.5222899999999999                 13.6723
   350   4                -28.2118      3.3976600000000001      13.492000000000001
   351   2     -23.908300000000001     -8.5921500000000002     0.20016700000000001
   352   4                -23.8447     -7.5281599999999997   -0.099089399999999994
   353   4                -23.5685     -9.2155199999999997    -0.64649000000000001
   354   7     -25.266500000000001     -8.9971700000000006     0.61491300000000004
   355   2     -25.218599999999999     -9.4947599999999994      1.9395800000000001
   356   7     -26.183900000000001     -9.8941400000000002      2.5305800000000001
   357   7     -23.944700000000001     -9.5671099999999996      2.3979699999999999
   358   2     -23.001200000000001     -8.9705399999999997      1.4202300000000001
   359   4                -22.2044     -9.7216900000000006      1.2523299999999999