(written by ASE)

888 atoms
9 atom types

0.0      21.553999999999998  xlo xhi
0.0      21.553999999999998  ylo yhi
0.0                  21.544  zlo zhi

Atoms # atomic

     1   2     -33.450200000000002                -12.8498      20.119900000000001
     2   4     -34.510100000000001     -12.744199999999999                 20.5062
     3   4     -32.827599999999997     -13.592000000000001      20.573499999999999
     4   7     -32.698999999999998                -11.6159                 20.5246
     5   2                 -32.366     -10.866300000000001      19.466799999999999
     6   7                -31.9711     -9.6805599999999998      19.606400000000001
     7   7     -32.719700000000003                -11.5136      18.296299999999999
     8   2     -33.368400000000001                -12.7502      18.618500000000001
     9   4     -32.876399999999997     -13.536300000000001                 18.1158
    10   4                -34.3127                -12.6273      18.163399999999999
    11   2     -25.141400000000001     -7.3946899999999998      5.0609900000000003
    12   4                -24.3721     -8.1547800000000006      4.9239199999999999
    13   4     -24.791899999999998      14.822699999999999      5.8989399999999996
    14   7     -26.242799999999999     -8.0867100000000001      5.7192100000000003
    15   2     -27.252700000000001     -8.1295500000000001      4.7852800000000002
    16   7     -28.317799999999998     -8.6623099999999997      4.9869300000000001
    17   7     -26.934100000000001     -7.3731900000000001      3.6476899999999999
    18   2     -25.714600000000001     -6.6945600000000001      3.8719299999999999
    19   4     -26.021899999999999     -5.6109799999999996      4.0310100000000002
    20   4     -25.051100000000002     -6.7019700000000002      2.9617100000000001
    21   2     -26.947399999999998                -3.19265      2.0600000000000001
    22   4                -26.9785     -3.3774099999999998     0.99112800000000001
    23   4     -26.415299999999998     -3.9066800000000002      2.6519900000000001
    24   7                -28.3629     -3.0739899999999998      2.5641400000000001
    25   2     -28.569299999999998                -1.82603      3.0326399999999998
    26   7     -29.666499999999999     -1.3931800000000001                  3.4133
    27   7     -27.383700000000001     -1.1650700000000001      3.1059199999999998
    28   2     -26.392800000000001                -1.76048      2.2991199999999998
    29   4                -25.4361     -1.8154600000000001      2.8271999999999999
    30   4     -26.217700000000001                -1.17387      1.3329299999999999
    31   2                -13.3171      4.5577899999999998                -2.45939
    32   4     -12.488799999999999      5.2570199999999998     -2.4993300000000001
    33   4                -13.1829      3.6490200000000002     -1.8510599999999999
    34   7     -13.424899999999999      4.1698700000000004     -3.8472900000000001
    35   2                -14.7629      4.1603700000000003     -4.2048800000000002
    36   7                -15.1767      3.7580800000000001     -5.3090599999999997
    37   7                -15.5275      4.8584100000000001     -3.3531399999999998
    38   2     -14.731199999999999      5.1314799999999998                -2.18119
    39   4     -15.251899999999999      4.6995899999999997                -1.22231
    40   4                -14.8169      6.2261600000000001                -2.09436
    41   2     -21.091699999999999     -7.1190699999999998                 17.3779
    42   4     -20.240500000000001     -6.4613399999999999      17.015000000000001
    43   4     -20.999700000000001     -8.1011799999999994      16.813199999999998
    44   7     -22.429300000000001     -6.6116299999999999                 17.1435
    45   2     -23.089200000000002     -6.6354699999999998      18.376100000000001
    46   7     -24.235399999999998     -6.3095100000000004      18.551300000000001
    47   7     -22.299900000000001     -7.0589500000000003                 19.4132
    48   2     -20.933399999999999     -7.3618100000000002      18.890799999999999
    49   4     -20.722100000000001                -8.35642      19.208600000000001
    50   4     -20.222100000000001     -6.7454099999999997      19.514500000000002
    51   2                -16.5002                  11.927      13.182499999999999
    52   4                -16.3369      12.350099999999999      14.198399999999999
    53   4     -16.849799999999998      12.638500000000001                 12.4312
    54   7                -17.5959                -10.6607                 13.0861
    55   2     -17.171900000000001     -11.748799999999999      12.466200000000001
    56   7     -17.964500000000001                 -12.564      12.088100000000001
    57   7                -15.8443      9.8191799999999994                 12.2235
    58   2     -15.233700000000001      11.097799999999999                 12.7782
    59   4     -14.617100000000001                 11.5511      12.044600000000001
    60   4                -14.5877                 10.9953      13.686999999999999
    61   2                -19.9771     -3.0013700000000001      17.387699999999999
    62   4     -20.729600000000001     -2.2593100000000002                 17.7273
    63   4                -20.1587     -3.3538299999999999                 16.3794
    64   7                -20.1296     -4.1260300000000001                 18.3781
    65   2     -19.212900000000001     -3.9948000000000001                 19.4253
    66   7     -19.126300000000001     -4.6779299999999999                 20.4054
    67   7     -18.338200000000001     -2.9571999999999998                 19.1099
    68   2     -18.585699999999999     -2.4915099999999999      17.674399999999999
    69   4     -17.822199999999999     -2.9941900000000001      17.060400000000001
    70   4     -18.318300000000001                -1.44797      17.584700000000002
    71   2     -28.663900000000002      6.3041400000000003     -2.8772899999999999
    72   4     -27.927900000000001      5.7159599999999999     -2.3420899999999998
    73   4                -28.6433      5.9519900000000003                -3.88971
    74   7     -28.250299999999999      7.8083799999999997     -2.8980800000000002
    75   2                -29.1934                 -13.068     -2.1200899999999998
    76   7     -29.026900000000001                -11.9292     -1.7380199999999999
    77   7     -30.246400000000001      7.7679299999999998                -1.79654
    78   2     -29.949000000000002      6.3643099999999997     -2.1261999999999999
    79   4     -30.797499999999999      6.1624999999999996     -2.7188699999999999
    80   4     -29.954699999999999      5.9045699999999997     -1.1222700000000001
    81   2     -30.517299999999999     -12.461499999999999      9.9662400000000009
    82   4     -31.582599999999999     -12.665800000000001      10.228199999999999
    83   4     -29.904599999999999     -13.248799999999999                 10.4724
    84   7     -30.116099999999999                -11.1716                 10.4717
    85   2     -29.558299999999999                -10.5191      9.3831900000000008
    86   7     -28.970700000000001     -9.4466800000000006      9.3551199999999994
    87   7     -29.575099999999999                -11.2646      8.2589600000000001
    88   2     -30.334599999999998                -12.4299      8.3911999999999995
    89   4                -29.8581                -13.3666                 7.96739
    90   4     -31.334399999999999                -12.2677                 7.77088
    91   2     -16.886199999999999     -8.6615400000000005      22.015599999999999
    92   4     -16.253699999999998     -8.5306899999999999      21.120100000000001
    93   4     -16.659700000000001     -9.6667000000000005                 22.3522
    94   7                -18.2514     -8.6190099999999994                 21.5215
    95   2     -18.925699999999999     -7.5861400000000003      22.122299999999999
    96   7     -20.069700000000001     -7.3084899999999999      21.924700000000001
    97   7     -18.182500000000001     -6.9480700000000004      23.027000000000001
    98   2     -16.849499999999999     -7.5217599999999996      23.097799999999999
    99   4     -16.644600000000001                -7.94245      24.103200000000001
   100   4     -16.042200000000001     -6.8814200000000003      22.743500000000001
   101   2                -19.7593     -5.2811599999999999      6.8900499999999996
   102   4     -18.839099999999998     -5.8073100000000002      6.8043199999999997
   103   4                -20.3901                -5.55403      6.0184899999999999
   104   7     -19.503900000000002     -3.9047499999999999      6.6301800000000002
   105   2     -20.037299999999998                -3.14717      7.6817799999999998
   106   7                -19.9787     -1.9393899999999999      7.7903799999999999
   107   7                -20.6221     -3.8688099999999999      8.6933000000000007
   108   2     -20.372499999999999     -5.3161199999999997      8.4060799999999993
   109   4     -21.311599999999999     -5.8161199999999997      8.5512800000000002
   110   4     -19.661899999999999     -5.7093299999999996      9.1340599999999998
   111   2     -24.641400000000001      5.8065699999999998                -3.36951
   112   4     -25.314800000000002      6.6936799999999996      18.034800000000001
   113   4     -24.957999999999998      5.2555800000000001     -2.5324900000000001
   114   7                -23.3033      6.3579800000000004     -3.1652100000000001
   115   2     -22.403700000000001      5.3293600000000003     -3.5612499999999998
   116   7     -21.230599999999999      5.3645300000000002     -3.3095599999999998
   117   7     -23.010100000000001                 4.49268     -4.4457100000000001
   118   2     -24.401499999999999                   4.875     -4.5789799999999996
   119   4     -24.935700000000001      3.8689800000000001     -4.6085000000000003
   120   4     -24.545200000000001      5.2945399999999996      16.037299999999998
   121   2     -38.549300000000002     -13.207000000000001      22.761600000000001
   122   4                -39.2849     -14.026999999999999                 22.8672
   123   4     -38.663899999999998     -12.623900000000001      23.716100000000001
   124   7     -38.723100000000002                -12.3611      21.625499999999999
   125   2     -37.600099999999998                -12.5009      20.804500000000001
   126   7     -37.589599999999997                -11.8819                 19.7715
   127   7     -36.662700000000001     -13.333399999999999                 21.2805
   128   2     -37.127899999999997                -13.8032      22.608000000000001
   129   4     -36.424900000000001                 -13.551      23.399000000000001
   130   4     -37.024999999999999     -14.956200000000001      22.596499999999999
   131   2     -15.767200000000001     -8.1522199999999998      17.824000000000002
   132   4     -15.156499999999999     -7.4390700000000001      17.255700000000001
   133   4                -15.1975     -8.9274900000000006      18.424199999999999
   134   7                 -16.613     -8.9099599999999999                  16.808
   135   2                -17.7591     -9.2370300000000007      17.539000000000001
   136   7     -18.514900000000001                -10.1111      17.188400000000001
   137   7                -17.7941     -8.5509400000000007                 18.6934
   138   2     -16.806999999999999     -7.4231999999999996                 18.6005
   139   4     -16.354399999999998                -7.02813      19.639700000000001
   140   4                -17.2288                -6.59849      18.003900000000002
   141   2     -9.3253799999999991     -3.3589099999999998      5.9680799999999996
   142   4     -9.3375800000000009     -2.3242400000000001      5.6109600000000004
   143   4     -31.884399999999999     -3.5969199999999999      6.4916999999999998
   144   7     -29.933199999999999     -3.3795299999999999      7.1395499999999998
   145   2     -28.992999999999999     -4.3321300000000003      6.9016500000000001
   146   7     -28.173100000000002     -4.6871299999999998      7.7090699999999996
   147   7     -7.5846799999999996     -4.9397599999999997      5.6242299999999998
   148   2     -8.8744200000000006     -4.4420799999999998      4.9539900000000001
   149   4     -9.6187199999999997     -5.2921399999999998      4.8369900000000001
   150   4     -8.6459600000000005     -4.0653699999999997      3.9450599999999998
   151   2     -25.003900000000002                 -12.715      16.022400000000001
   152   4     -24.237500000000001                -12.5303                 15.2218
   153   4     -24.472200000000001                -12.7355                      17
   154   7                -25.4923     -14.039099999999999                 15.8521
   155   2     -26.755099999999999                -14.1158      15.437099999999999
   156   7     -27.364799999999999     -15.113200000000001                 15.0846
   157   7                -27.3507                -12.8941                  15.552
   158   2                -26.2864                -11.8451                 15.8691
   159   4     -26.559899999999999                 10.1807      16.766400000000001
   160   4     -26.328800000000001      10.402900000000001                 15.0595
   161   2                -36.5852                -1.55389                 18.5503
   162   4     -35.587899999999998                -1.93093                 18.4452
   163   4     -37.203699999999998                -2.20743      18.007300000000001
   164   7     -36.661200000000001               -0.194522      18.033899999999999
   165   2     -36.541600000000003     0.61905699999999997      19.092099999999999
   166   7                -14.6159                 1.72675      19.012699999999999
   167   7     -36.839700000000001   -0.025884000000000001      20.279599999999999
   168   2     -37.111899999999999     -1.4319900000000001                 19.9925
   169   4     -38.176400000000001                -1.64846      19.993200000000002
   170   4     -36.633299999999998     -2.0880299999999998      20.720300000000002
   171   2                -11.8606     -4.3723599999999996                 14.7401
   172   4     -11.137700000000001     -5.1625199999999998                   14.85
   173   4                -11.9764     -4.4055799999999996                 13.6006
   174   7                -11.4338     -3.0585300000000002                 15.2089
   175   2     -12.042999999999999     -2.7199599999999999      16.323399999999999
   176   7                -11.8452     -1.7275400000000001                 17.0413
   177   7                -13.0825     -3.5981200000000002      16.630600000000001
   178   2     -13.150499999999999     -4.5851800000000003      15.524800000000001
   179   4                -13.9925     -4.3297100000000004      14.894500000000001
   180   4                -13.3841     -5.5959399999999997                 15.9422
   181   2                -22.9968                 -12.484      4.8362400000000001
   182   4     -23.680299999999999      9.9224999999999994      4.6104599999999998
   183   4     -23.530100000000001                -13.3109                 5.35907
   184   7                -21.8687      9.4803899999999999      5.6982699999999999
   185   2     -20.830200000000001                -12.8454      5.3831800000000003
   186   7     -19.802700000000002     -12.846299999999999      5.9843400000000004
   187   7     -20.969899999999999     -13.465999999999999      4.2297099999999999
   188   2     -22.265599999999999                -13.0626      3.6613699999999998
   189   4     -22.786799999999999                 -13.956      3.2361399999999998
   190   4                -22.0078                -12.3736      24.409099999999999
   191   2     -23.544799999999999                -1.41116                 18.1815
   192   4     -22.859999999999999                -1.61303      18.991800000000001
   193   4     -23.226500000000001    -0.69336799999999998      17.353400000000001
   194   7                -24.7272    -0.82310000000000005                 18.8172
   195   2                -25.6128                -1.78783      19.085100000000001
   196   7     -26.692399999999999                -1.71696      19.746099999999998
   197   7     -25.200800000000001     -2.9732599999999998                 18.5731
   198   2     -24.043099999999999                -2.82605      17.706800000000001
   199   4     -24.485900000000001                -2.90334      16.708600000000001
   200   4                -23.4389     -3.7132399999999999      17.891300000000001
   201   2     -22.339400000000001                -2.66364                 22.4223
   202   4     -22.902999999999999     -2.0289600000000001      23.097899999999999
   203   4     -21.569500000000001     -2.2774899999999998      21.724599999999999
   204   7     -23.429500000000001     -3.0774900000000001      21.516400000000001
   205   2     -23.642299999999999     -4.3954899999999997      21.696400000000001
   206   7     -24.618099999999998                -4.93208      21.122599999999998
   207   7     -22.803000000000001     -5.0231700000000004     0.92510800000000004
   208   2     -21.926100000000002     -4.0289799999999998                 1.56149
   209   4     -20.901700000000002     -4.2782600000000004                 1.33806
   210   4     -22.092400000000001     -3.9868999999999999      2.6036600000000001
   211   2     -12.070600000000001     -6.8457699999999999      19.733599999999999
   212   4     -11.728899999999999                -7.55633      19.019200000000001
   213   4     -11.515499999999999     -7.2266500000000002      20.600300000000001
   214   7     -13.507300000000001     -6.8406700000000003      20.041599999999999
   215   2                -13.9771     -5.5886300000000002                 20.0169
   216   7     -15.119999999999999     -5.3663699999999999      20.418500000000002
   217   7                -13.0198     -4.6916500000000001     -1.8250900000000001
   218   2                 -11.743     -5.4307800000000004     -2.1539600000000001
   219   4     -32.445799999999998     -5.0662500000000001                -1.54504
   220   4                -11.5449     -5.3032000000000004     -3.2038700000000002
   221   2                -20.6769      10.587300000000001                 13.9184
   222   4     -20.540199999999999      10.660500000000001                 12.8483
   223   4     -20.371700000000001      9.6084499999999995                 14.4254
   224   7                -22.1675      10.686199999999999      14.165800000000001
   225   2     -22.428599999999999      12.023400000000001                  14.161
   226   7     -23.535799999999998                 12.5387      13.980499999999999
   227   7                -21.2559                 12.7247                 14.3584
   228   2     -20.145700000000001                 11.8309      14.589700000000001
   229   4                 -19.814      11.597099999999999                 15.5886
   230   4     -19.313400000000001      12.241400000000001                  14.012
   231   2     -37.173400000000001      8.7570499999999996      16.806699999999999
   232   4     -37.033999999999999      9.7995599999999996      17.128699999999998
   233   4     -37.319299999999998      8.0606399999999994                 17.6325
   234   7     -36.029899999999998      8.2257899999999999      16.116499999999998
   235   2     -36.408299999999997      7.9281699999999997                 14.7727
   236   7                -14.1213      7.4758100000000001                 13.9405
   237   7                -37.7592      8.1483500000000006      14.602499999999999
   238   2     -38.325699999999998      8.8436800000000009                 15.7889
   239   4     -39.291200000000003      8.3635099999999998      16.003299999999999
   240   4     -38.588099999999997      9.8850099999999994                 15.4558
   241   2     -33.267400000000002     -7.7093100000000003                 5.14255
   242   4     -33.278599999999997     -6.8488300000000004                 5.83833
   243   4     -34.112900000000003     -7.5314800000000002      4.4068699999999996
   244   7     -33.655900000000003     -8.8983600000000003      5.8827299999999996
   245   2     -32.622100000000003     -9.7191200000000002      6.0905199999999997
   246   7     -32.561100000000003                -10.5868      6.8911899999999999
   247   7     -31.535900000000002     -9.3656199999999998                 5.28566
   248   2                -31.8581     -8.1421899999999994      4.5527899999999999
   249   4     -31.896599999999999                -8.42286      3.4777499999999999
   250   4     -31.053999999999998     -7.4366099999999999      4.5282200000000001
   251   2                -24.5093     -7.8751499999999997      9.7724600000000006
   252   4     -23.581900000000001     -7.5860200000000004      9.1546299999999992
   253   4     -24.547999999999998                -8.95533                 9.73447
   254   7     -25.730599999999999     -7.3331099999999996      9.2297600000000006
   255   2     -26.585000000000001     -7.0040800000000001      10.264900000000001
   256   7     -27.734200000000001     -6.5915999999999997                 10.1469
   257   7     -25.858699999999999     -7.0069400000000002                 11.4902
   258   2     -24.492699999999999     -7.3570099999999998                 11.2599
   259   4     -24.235399999999998     -8.0271799999999995      12.111599999999999
   260   4                -23.8964     -6.4047200000000002                 11.3955
   261   2                 -24.878                 10.4991      19.641300000000001
   262   4                -25.5304      9.6315200000000001                 19.4114
   263   4     -25.273399999999999      11.168200000000001                 20.4145
   264   7                -24.8263                 11.2715      18.393799999999999
   265   2     -23.585599999999999                 11.3841                 17.9848
   266   7     -23.164400000000001                 11.9214      16.942699999999999
   267   7     -22.701799999999999      10.860900000000001                 18.9055
   268   2     -23.462399999999999                 10.0709      19.854199999999999
   269   4     -23.020700000000001                 10.2272                 20.8583
   270   4                -23.3688      9.0044900000000005      19.695900000000002
   271   2                 -30.599     -8.1800099999999993                 12.3482
   272   4                -30.2029     -8.4839300000000009      11.402799999999999
   273   4                -31.6995     -8.4192300000000007      12.354699999999999
   274   7     -30.349299999999999     -6.7408200000000003                 12.4152
   275   2     -29.366499999999998     -6.4778099999999998                 13.3459
   276   7     -28.831099999999999     -5.3952499999999999                 13.5589
   277   7     -28.947700000000001                -7.62723                 13.8667
   278   2     -29.899100000000001     -8.7083499999999994                 13.6023
   279   4     -30.684899999999999     -8.8260100000000001                 14.4186
   280   4     -29.326599999999999     -9.6178600000000003                 13.5693
   281   2                -35.3155                 10.9923      8.4587000000000003
   282   4     -36.345199999999998      11.136699999999999      8.8248700000000007
   283   4     -34.993299999999998                 11.7814      7.7373799999999999
   284   7     -35.093899999999998     -11.687099999999999      7.5956400000000004
   285   2                -34.5824                -12.7582      8.3071699999999993
   286   7     -34.406300000000002     -13.893599999999999      7.8886000000000003
   287   7     -34.234000000000002     -12.342000000000001      9.6190999999999995
   288   2     -34.255000000000003      10.650499999999999      9.5664599999999993
   289   4                -33.2879                 10.9451      9.0944099999999999
   290   4     -34.408700000000003                 11.0909                 10.5511
   291   2                -26.9175      6.1403100000000004      4.7641900000000001
   292   4                -27.4467      6.1840700000000002                 5.73916
   293   4     -27.074100000000001      6.8846800000000004      4.0463100000000001
   294   7                -27.5061      4.9261299999999997      4.0958300000000003
   295   2                -26.6266      3.9527600000000001      4.2398300000000004
   296   7     -26.822900000000001                 2.77075      3.8182800000000001
   297   7     -25.444900000000001      4.2992800000000004                 4.77942
   298   2     -25.420400000000001      5.7976999999999999      4.8474700000000004
   299   4     -24.808199999999999      6.0549400000000002      3.9568500000000002
   300   4                -24.9178      6.1205299999999996      5.7802800000000003
   301   2     -26.442299999999999      9.6190800000000003      5.6434100000000003
   302   4     -27.090299999999999                 10.3797      5.3146100000000001
   303   4     -25.955100000000002      9.1356400000000004      4.7938200000000002
   304   7                -27.1922                 8.54678      6.2757199999999997
   305   2                -26.5047      8.2244100000000007      7.4598800000000001
   306   7                -26.9818      7.3942399999999999      8.2480100000000007
   307   7     -25.373999999999999      8.9440899999999992      7.6651400000000001
   308   2     -25.555099999999999                  10.153      6.8012499999999996
   309   4                -24.5947      10.543900000000001                 6.60642
   310   4     -26.228400000000001      10.842599999999999      7.3016300000000003
   311   2                -20.0976                -11.0098                 10.3063
   312   4     -19.386199999999999     -11.300800000000001                 11.0953
   313   4     -19.702100000000002     -11.448399999999999      9.3165399999999998
   314   7     -20.023499999999999     -9.5108499999999996                 10.1805
   315   2     -21.245799999999999                -9.03613      10.491300000000001
   316   7                -21.5198     -7.8619599999999998      10.370200000000001
   317   7                -22.1144     -9.9327199999999998      10.976000000000001
   318   2     -21.557300000000001                -11.2148      10.584099999999999
   319   4     -22.067499999999999     -11.747400000000001                 9.72851
   320   4     -21.741099999999999                -11.8437      11.537800000000001
   321   2                -18.8704      3.7085599999999999     -4.6529600000000002
   322   4                -19.8551                 3.95865     -5.1052200000000001
   323   4     -18.230399999999999                 4.56684     -4.8251400000000002
   324   7     -39.883600000000001      2.6458499999999998     -5.4422899999999998
   325   2     -39.799300000000002      1.5282199999999999     -4.6243299999999996
   326   7                -39.4039     0.46021699999999999     -5.0162899999999997
   327   7     -40.007100000000001      1.7875099999999999     -3.3590800000000001
   328   2     -40.452500000000001      3.1863800000000002     -3.1907299999999998
   329   4     -39.776200000000003                 3.68831     -2.5152700000000001
   330   4     -41.507399999999997      3.0386099999999998     -2.8294700000000002
   331   2                -22.0932      2.4247700000000001                 14.4429
   332   4     -21.484200000000001      3.0795400000000002                 13.8363
   333   4     -22.560400000000001      2.9718399999999998                 15.2842
   334   7     -21.221699999999998                 1.53207      15.093400000000001
   335   2     -21.316500000000001     0.31551800000000002                 14.5702
   336   7     -20.491399999999999    -0.55377100000000001                 14.8551
   337   7     -22.228899999999999     0.23480500000000001                 13.5868
   338   2     -23.082599999999999                 1.49413                 13.6828
   339   4                -24.0624                 1.28688                 14.2197
   340   4                -23.3931                 1.86659                 12.6732
   341   2     -29.255600000000001      2.1349200000000002      12.083399999999999
   342   4     -29.613299999999999                 2.81453                 11.2598
   343   4     -28.735900000000001                  1.2236                 11.7127
   344   7     -30.543600000000001                 1.65455      12.619899999999999
   345   2     -30.330400000000001      1.3838900000000001      13.955500000000001
   346   7     -31.096299999999999     0.72582400000000002                 14.6683
   347   7     -29.186199999999999                 1.92537      14.441700000000001
   348   2     -28.587299999999999      2.7422599999999999                  13.311
   349   4                -27.5548      2.6642199999999998                 13.3597
   350   4                -28.8062      3.8349700000000002      13.547599999999999
   351   2                -23.0413     -8.5738000000000003     0.82881300000000002
   352   4     -23.081800000000001     -7.4526000000000003     0.93670900000000001
   353   4     -22.603200000000001     -8.9249200000000002               -0.128331
   354   7     -24.405799999999999     -9.0490899999999996                  1.0062
   355   2     -24.585899999999999     -9.4552600000000009                 2.22993
   356   7     -25.613700000000001                -9.90245      2.6168300000000002
   357   7     -23.456900000000001     -9.4343299999999992                 3.00624
   358   2     -22.347300000000001                -9.06386      2.1112899999999999
   359   4                -21.8459                -9.98475      1.9036900000000001